/*--------------------------------*- C++ -*----------------------------------*\
  =========                 |
  \\      /  F ield         | OpenFOAM: The Open Source CFD Toolbox
   \\    /   O peration     | Website:  https://openfoam.org
    \\  /    A nd           | Version:  6
     \\/     M anipulation  |
\*---------------------------------------------------------------------------*/
FoamFile
{
    version     2.0;
    format      ascii;
    class       volScalarField;
    location    "60";
    object      gradTx;
}
// * * * * * * * * * * * * * * * * * * * * * * * * * * * * * * * * * * * * * //

dimensions      [0 -1 0 1 0 0 0];

internalField   nonuniform List<scalar> 
13524
(
4.19713
4.24193
4.28718
4.33314
4.37986
4.42744
4.476
4.52556
4.57621
4.628
4.68094
4.7351
4.79052
4.84723
4.9053
4.9648
5.02575
5.08822
5.15225
5.2179
5.28524
5.35433
5.42525
5.49809
5.57291
5.64979
5.72882
5.81009
5.89371
5.97978
6.06841
6.15972
6.25381
6.3508
6.45083
6.55406
6.66066
6.77077
6.88457
7.00225
7.12405
7.25019
7.38093
7.51657
7.65745
7.80409
7.9573
8.11889
8.29411
4.2117
4.25095
4.29323
4.3375
4.38326
4.43029
4.4785
4.52786
4.57839
4.63009
4.68299
4.73712
4.79252
4.84924
4.90732
4.96682
5.02778
5.09027
5.15432
5.21999
5.28736
5.35648
5.42743
5.50029
5.57514
5.65205
5.73112
5.81243
5.89608
5.98218
6.07084
6.16217
6.25629
6.35332
6.45341
6.55669
6.66332
6.77347
6.88731
7.00505
7.1269
7.25309
7.38387
7.51953
7.66039
7.80683
7.95918
8.11735
8.27842
4.35101
4.39792
4.44431
4.49115
4.53887
4.58763
4.6375
4.68854
4.74078
4.79426
4.84899
4.905
4.96233
5.02105
5.0812
5.1428
5.20591
5.27058
5.33689
5.4049
5.47465
5.54622
5.61969
5.69513
5.77262
5.85225
5.93411
6.0183
6.10493
6.19409
6.28589
6.38045
6.4779
6.57836
6.68199
6.78892
6.89933
7.01338
7.13126
7.25316
7.37931
7.50993
7.64529
7.78566
7.93132
8.08262
8.24002
8.40445
8.57946
4.41595
4.45784
4.50252
4.54905
4.59702
4.64626
4.69671
4.74838
4.80128
4.85543
4.91085
4.96755
5.02561
5.08507
5.14597
5.20836
5.27227
5.33777
5.40493
5.4738
5.54444
5.61692
5.69132
5.76773
5.84622
5.92687
6.00977
6.09502
6.18274
6.27302
6.36601
6.46179
6.56049
6.66224
6.76717
6.87546
6.98727
7.10277
7.22215
7.34559
7.47332
7.60557
7.74258
7.88461
8.03189
8.18464
8.34294
8.50627
8.67124
4.4935
4.54251
4.59087
4.63962
4.68915
4.73969
4.79134
4.84416
4.89819
4.95347
5.01003
5.06792
5.12719
5.18786
5.24998
5.31362
5.37882
5.44566
5.51419
5.58445
5.65652
5.73045
5.80634
5.88429
5.96437
6.04667
6.13126
6.21825
6.30773
6.39984
6.49468
6.59238
6.69307
6.79688
6.90394
7.01442
7.12849
7.24632
7.3681
7.49402
7.62432
7.75921
7.89894
8.04375
8.19387
8.34955
8.51109
8.67924
8.8575
4.60449
4.64895
4.6962
4.74528
4.79576
4.84746
4.90037
4.95447
5.00981
5.06641
5.1243
5.18354
5.24418
5.30626
5.36983
5.43493
5.50162
5.56999
5.64008
5.71195
5.78567
5.86131
5.93895
6.01867
6.10056
6.18471
6.27123
6.36021
6.45176
6.54598
6.643
6.74293
6.84591
6.95208
7.06158
7.17458
7.29125
7.41177
7.53633
7.66513
7.79839
7.93636
8.07927
8.22736
8.38088
8.53998
8.70469
8.87433
9.04521
4.62754
4.67893
4.72959
4.78049
4.83208
4.88459
4.93815
4.99283
5.0487
5.10583
5.16424
5.22398
5.2851
5.34767
5.41175
5.47738
5.54462
5.61353
5.68416
5.75658
5.83087
5.9071
5.98536
6.06573
6.14828
6.2331
6.32029
6.40995
6.5022
6.59715
6.69493
6.79566
6.89945
7.00646
7.11681
7.23069
7.34827
7.46974
7.59528
7.72509
7.8594
7.99847
8.14253
8.29184
8.44669
8.60734
8.77412
8.94777
9.1313
4.77439
4.82248
4.87273
4.92446
4.9774
5.03148
5.08668
5.14305
5.20065
5.25953
5.31973
5.3813
5.44429
5.50875
5.57476
5.64237
5.71163
5.78262
5.85539
5.93002
6.00655
6.08507
6.16567
6.24844
6.33348
6.42087
6.5107
6.60308
6.69812
6.79592
6.89664
7.00039
7.10731
7.21754
7.33122
7.44854
7.56967
7.69479
7.82412
7.95785
8.09624
8.23953
8.38799
8.54192
8.70162
8.8674
9.03951
9.21786
9.4006
4.7687
4.82065
4.87265
4.92518
4.97849
5.03272
5.088
5.14442
5.20206
5.26095
5.32115
5.38271
5.44572
5.51022
5.57626
5.64388
5.71314
5.78413
5.85692
5.93157
6.00813
6.08668
6.16732
6.25012
6.33517
6.42257
6.51242
6.60482
6.69988
6.79773
6.89848
7.00226
7.10921
7.21946
7.33318
7.45052
7.57169
7.69685
7.82622
7.96
8.09844
8.2418
8.39037
8.54444
8.70438
8.87062
9.04368
9.22427
9.41332
4.9167
4.96981
5.02297
5.07675
5.1314
5.18708
5.2439
5.30194
5.36125
5.42189
5.48391
5.54733
5.61223
5.67867
5.74671
5.8164
5.8878
5.96097
6.03598
6.11289
6.19178
6.27272
6.35581
6.44115
6.52882
6.61891
6.7115
6.80672
6.90468
7.00551
7.10934
7.2163
7.32652
7.44015
7.55734
7.67828
7.80314
7.93214
8.06546
8.20334
8.34602
8.49378
8.6469
8.80572
8.97063
9.14212
9.32095
9.5087
9.71
4.94079
4.98791
5.03817
5.09049
5.14442
5.19976
5.25642
5.3144
5.37372
5.4344
5.4965
5.56004
5.62508
5.69165
5.75982
5.82964
5.90119
5.97452
6.0497
6.1268
6.20588
6.28701
6.37029
6.45581
6.54367
6.63395
6.72677
6.82221
6.9204
7.02146
7.12553
7.23273
7.3432
7.45708
7.57454
7.69575
7.82091
7.95019
8.08381
8.222
8.36499
8.51307
8.66651
8.82563
8.99077
9.16229
9.34049
9.5251
9.71289
5.03664
5.09095
5.14483
5.19926
5.25467
5.31126
5.36911
5.42828
5.48882
5.55076
5.61413
5.67899
5.74539
5.81338
5.88302
5.95434
6.02741
6.1023
6.17908
6.25781
6.33857
6.42144
6.50652
6.59388
6.68362
6.77584
6.87063
6.96811
7.06839
7.17162
7.27791
7.38741
7.50024
7.61656
7.73653
7.86033
7.98816
8.1202
8.25668
8.39781
8.54384
8.69505
8.85171
9.01412
9.18261
9.35753
9.53934
9.72897
9.92995
5.09166
5.14086
5.19289
5.24686
5.30238
5.3593
5.41757
5.47721
5.53827
5.60077
5.66472
5.73016
5.79713
5.86571
5.93596
6.00792
6.08165
6.15722
6.23471
6.31416
6.39565
6.47926
6.56508
6.65322
6.74377
6.83683
6.93248
7.03084
7.13203
7.23618
7.34343
7.45391
7.56777
7.68513
7.80618
7.9311
8.06008
8.19331
8.33101
8.47339
8.62072
8.77325
8.93126
9.09502
9.26483
9.44095
9.62352
9.81214
10.0037
5.14609
5.20171
5.25692
5.31269
5.36942
5.42731
5.48646
5.54694
5.60879
5.67209
5.73687
5.80316
5.87101
5.94049
6.01164
6.08451
6.15918
6.2357
6.31417
6.39464
6.47718
6.56186
6.64879
6.73806
6.82976
6.924
7.02087
7.12049
7.22297
7.32845
7.43707
7.54896
7.66426
7.78313
7.90572
8.03224
8.16286
8.29779
8.43725
8.58145
8.73064
8.88509
9.04508
9.21087
9.38275
9.56105
9.74612
9.93884
10.1426
5.22565
5.27676
5.3306
5.3863
5.44352
5.50213
5.56212
5.62349
5.68628
5.7505
5.81619
5.8834
5.95221
6.02267
6.09482
6.16873
6.24445
6.32205
6.40161
6.48319
6.56686
6.65271
6.74085
6.83136
6.92434
7.01989
7.1181
7.21909
7.32299
7.42994
7.54006
7.65351
7.77041
7.89092
8.01522
8.14349
8.27592
8.41272
8.55411
8.70031
8.85157
9.00817
9.17037
9.33846
9.5127
9.69336
9.88057
10.074
10.2707
5.24743
5.30422
5.36077
5.41793
5.47605
5.53532
5.59584
5.65769
5.72094
5.78563
5.85179
5.91947
5.98874
6.05964
6.13225
6.20661
6.2828
6.36089
6.44095
6.52305
6.60725
6.69363
6.78231
6.87337
6.96693
7.06306
7.16188
7.2635
7.36804
7.47565
7.58645
7.70059
7.81821
7.93947
8.06454
8.1936
8.32685
8.4645
8.60677
8.75388
8.9061
9.06369
9.22693
9.39611
9.57154
9.75353
9.94245
10.1391
10.3465
5.34332
5.39638
5.45204
5.50951
5.56847
5.62878
5.69043
5.75341
5.81778
5.88361
5.95094
6.01981
6.09028
6.16242
6.23628
6.31193
6.38943
6.46885
6.55027
6.63376
6.71939
6.80725
6.89744
6.99006
7.0852
7.18296
7.28346
7.38681
7.49313
7.60256
7.71525
7.83133
7.95095
8.07427
8.20146
8.33271
8.46823
8.60823
8.75293
8.90256
9.05739
9.2177
9.38379
9.55596
9.73454
9.91983
10.112
10.3108
10.5134
5.33989
5.39836
5.45661
5.51537
5.57499
5.63568
5.69757
5.76076
5.82531
5.89129
5.95875
6.02773
6.09832
6.17056
6.24453
6.32029
6.3979
6.47744
6.55897
6.64258
6.72833
6.8163
6.90661
6.99936
7.09463
7.19253
7.29317
7.39665
7.50311
7.61269
7.72554
7.84178
7.96156
8.08504
8.21241
8.34385
8.47956
8.61975
8.76466
8.91451
9.06958
9.23015
9.39654
9.56908
9.74813
9.93413
10.1276
10.3296
10.5425
5.44027
5.49747
5.55576
5.61516
5.67569
5.73741
5.80038
5.86468
5.9304
5.99758
6.06625
6.13649
6.20835
6.28191
6.35722
6.43435
6.51335
6.59433
6.67734
6.76246
6.84976
6.93933
7.03127
7.12569
7.22268
7.32235
7.42481
7.53016
7.63855
7.75011
7.86499
7.98334
8.10528
8.231
8.36067
8.49448
8.63265
8.77539
8.92292
9.0755
9.23339
9.39691
9.56637
9.74211
9.92455
10.1141
10.3115
10.5174
10.7335
5.4444
5.50001
5.5574
5.61628
5.67651
5.73806
5.80094
5.86518
5.93085
5.99799
6.06665
6.13687
6.20873
6.28228
6.35759
6.43472
6.51373
6.59471
6.67772
6.76285
6.85015
6.93972
7.03167
7.12609
7.22309
7.32277
7.42523
7.53059
7.63899
7.75056
7.86545
7.98381
8.10576
8.23149
8.36117
8.495
8.63318
8.77593
8.92348
9.07607
9.23399
9.39753
9.56703
9.74281
9.92528
10.1149
10.312
10.517
10.7291
5.5223
5.58134
5.6406
5.70068
5.76185
5.82426
5.888
5.95314
6.01973
6.08783
6.15748
6.22873
6.30164
6.37628
6.4527
6.53097
6.61115
6.69334
6.77759
6.86399
6.95259
7.0435
7.13682
7.23266
7.33111
7.43228
7.53627
7.64321
7.75322
7.86647
7.98308
8.1032
8.22699
8.3546
8.48622
8.62205
8.7623
8.90719
9.05694
9.21182
9.3721
9.53808
9.71009
9.88847
10.0736
10.266
10.466
10.6748
10.8952
5.54005
5.59509
5.65257
5.71187
5.77271
5.83499
5.89869
5.96384
6.03048
6.09865
6.16838
6.23972
6.31274
6.38749
6.46403
6.54243
6.62274
6.70506
6.78946
6.876
6.96476
7.05583
7.14931
7.24531
7.34393
7.44528
7.54945
7.65657
7.76678
7.88022
7.99704
8.11738
8.24138
8.36921
8.50107
8.63714
8.77763
8.92276
9.07278
9.22792
9.38846
9.55471
9.72698
9.9056
10.0909
10.2833
10.4831
10.6901
10.9025
5.59343
5.65284
5.71252
5.77308
5.8348
5.89782
5.96221
6.02803
6.09535
6.16422
6.23467
6.30676
6.38054
6.45607
6.53342
6.61265
6.69382
6.77701
6.86231
6.94977
7.03948
7.13152
7.22601
7.32304
7.42271
7.52515
7.63044
7.73871
7.8501
7.96476
8.08283
8.20445
8.32978
8.45899
8.59226
8.72978
8.87178
9.01847
9.17009
9.32688
9.48912
9.65712
9.83119
10.0117
10.1989
10.3932
10.5951
10.8053
11.0261
5.61777
5.67413
5.73265
5.79285
5.85453
5.91764
5.98219
6.04821
6.11573
6.1848
6.25547
6.32779
6.4018
6.47757
6.55517
6.63465
6.71608
6.79955
6.88512
6.97288
7.06288
7.15523
7.25002
7.34737
7.44738
7.55015
7.65579
7.76442
7.87618
7.99122
8.10968
8.23171
8.35745
8.48709
8.62079
8.75877
8.90124
9.04841
9.20052
9.35782
9.52058
9.68911
9.86371
10.0447
10.2324
10.4272
10.6294
10.839
11.0545
5.65415
5.71394
5.77419
5.83541
5.8978
5.96148
6.02654
6.09306
6.16109
6.23068
6.30187
6.37471
6.44926
6.52559
6.60376
6.68383
6.76586
6.84994
6.93614
7.02454
7.11521
7.20824
7.30374
7.4018
7.50255
7.60609
7.71251
7.82194
7.93453
8.05042
8.16976
8.29269
8.41936
8.54995
8.68465
8.82365
8.96717
9.11542
9.26865
9.4271
9.59106
9.76081
9.93668
10.119
10.3081
10.5043
10.7081
10.9202
11.1427
5.68049
5.73802
5.79747
5.8585
5.92098
5.98486
6.05016
6.11694
6.18524
6.2551
6.32657
6.39969
6.47454
6.55117
6.62964
6.71002
6.79237
6.87678
6.96332
7.05206
7.14309
7.23648
7.33235
7.4308
7.53194
7.63588
7.74271
7.85258
7.96561
8.08195
8.20175
8.32516
8.45233
8.58344
8.71866
8.8582
9.00227
9.15111
9.30493
9.46399
9.62858
9.79899
9.97552
10.1585
10.3483
10.5453
10.7497
10.9618
11.1806
5.70507
5.7651
5.82581
5.88756
5.95053
6.01482
6.0805
6.14765
6.2163
6.28653
6.35836
6.43186
6.50709
6.58411
6.66297
6.74376
6.82652
6.91136
6.99833
7.08752
7.179
7.27286
7.36921
7.46816
7.56981
7.67427
7.78164
7.89206
8.00565
8.12258
8.24299
8.36702
8.49483
8.62659
8.76249
8.90273
9.04753
9.19711
9.3517
9.51156
9.67697
9.84823
10.0257
10.2096
10.4003
10.5983
10.804
11.018
11.2419
5.7292
5.78775
5.84797
5.90968
5.97279
6.03729
6.10322
6.17063
6.23955
6.31004
6.38216
6.45594
6.53146
6.60877
6.68794
6.76903
6.85211
6.93726
7.02457
7.11409
7.20591
7.30013
7.39684
7.49616
7.59819
7.70304
7.81082
7.92165
8.03567
8.15303
8.27389
8.39838
8.52667
8.65893
8.79534
8.9361
9.08144
9.23158
9.38676
9.54722
9.71325
9.88515
10.0632
10.2479
10.4394
10.6381
10.8445
11.0588
11.2806
5.74586
5.80594
5.86695
5.92912
5.99257
6.05735
6.12354
6.19119
6.26036
6.33111
6.40348
6.47752
6.55329
6.63087
6.71031
6.79168
6.87504
6.96048
7.04808
7.13791
7.23004
7.32457
7.42161
7.52126
7.62363
7.72883
7.83697
7.94817
8.06257
8.18033
8.30159
8.42651
8.55523
8.68792
8.82479
8.96603
9.11186
9.2625
9.4182
9.5792
9.74579
9.91829
10.097
10.2823
10.4744
10.6739
10.8811
11.0967
11.3217
5.76462
5.824
5.88484
5.94707
6.01066
6.07563
6.14202
6.20988
6.27927
6.35025
6.42285
6.49712
6.57314
6.65096
6.73064
6.81226
6.89588
6.98159
7.06946
7.15956
7.25197
7.3468
7.44413
7.54408
7.64677
7.75229
7.86076
7.9723
8.08705
8.20516
8.32679
8.45209
8.5812
8.7143
8.85158
8.99325
9.13952
9.29063
9.4468
9.6083
9.77541
9.94844
10.1277
10.3136
10.5064
10.7065
10.9143
11.1303
11.3545
5.77593
5.83593
5.89713
5.95958
6.02335
6.08848
6.15503
6.22306
6.29262
6.36376
6.43653
6.51097
6.58715
6.66514
6.74501
6.82681
6.91061
6.9965
7.08456
7.17486
7.26748
7.3625
7.46005
7.56022
7.66312
7.76887
7.87758
7.98935
8.10435
8.22272
8.34461
8.47017
8.59956
8.73295
8.87053
9.0125
9.15909
9.31053
9.46704
9.62889
9.79638
9.96979
10.1495
10.3358
10.529
10.7296
10.938
11.1547
11.3803
5.78732
5.84742
5.90872
5.9713
6.03521
6.10049
6.16719
6.23537
6.30508
6.37637
6.44929
6.52389
6.60023
6.67839
6.75841
6.84038
6.92435
7.01042
7.09866
7.18914
7.28194
7.37716
7.4749
7.57527
7.67838
7.78435
7.89327
8.00527
8.1205
8.2391
8.36124
8.48705
8.6167
8.75035
8.88821
9.03047
9.17735
9.32909
9.48593
9.64811
9.81594
9.98972
10.1698
10.3565
10.5501
10.7512
10.9601
11.1773
11.4034
5.79457
5.85438
5.91561
5.97822
6.0422
6.10757
6.17437
6.24264
6.31244
6.38382
6.45684
6.53153
6.60797
6.68622
6.76635
6.84841
6.93249
7.01866
7.107
7.19759
7.2905
7.38583
7.48369
7.58418
7.68741
7.7935
7.90255
8.01469
8.13005
8.2488
8.37108
8.49704
8.62684
8.76066
8.89868
9.04111
9.18817
9.34009
9.49712
9.6595
9.82754
10.0015
10.1818
10.3688
10.5627
10.764
10.9732
11.1906
11.4164
5.79759
5.85836
5.92006
5.98293
6.04707
6.11254
6.17942
6.24776
6.31763
6.38908
6.46216
6.53692
6.61343
6.69175
6.77195
6.85408
6.93823
7.02447
7.11289
7.20355
7.29654
7.39195
7.48989
7.59046
7.69379
7.79996
7.9091
8.02133
8.13679
8.25564
8.37802
8.50409
8.634
8.76792
8.90606
9.04861
9.1958
9.34785
9.50501
9.66753
9.83572
10.0099
10.1903
10.3774
10.5716
10.7731
10.9826
11.2007
11.4285
5.80096
5.8606
5.92185
5.98453
6.0486
6.11406
6.18093
6.24928
6.31917
6.39065
6.46375
6.53853
6.61506
6.6934
6.77362
6.85577
6.93994
7.02621
7.11465
7.20533
7.29835
7.39378
7.49174
7.59234
7.69569
7.80189
7.91105
8.02331
8.1388
8.25767
8.38009
8.50619
8.63613
8.77009
8.90826
9.05085
9.19807
9.35016
9.50736
9.66993
9.83816
10.0124
10.1929
10.38
10.5742
10.7758
10.9853
11.203
11.4287
5.79756
5.85836
5.92008
5.98295
6.04708
6.11254
6.17941
6.24776
6.31763
6.38908
6.46216
6.53692
6.61343
6.69175
6.77195
6.85408
6.93823
7.02448
7.11289
7.20356
7.29655
7.39196
7.48989
7.59046
7.69378
7.79996
7.9091
8.02133
8.13679
8.25563
8.37802
8.50409
8.634
8.76792
8.90606
9.04861
9.1958
9.34785
9.50501
9.66754
9.83572
10.0099
10.1903
10.3774
10.5716
10.7731
10.9826
11.2007
11.4285
5.79456
5.85438
5.91562
5.97823
6.04221
6.10757
6.17437
6.24264
6.31244
6.38383
6.45684
6.53153
6.60797
6.68622
6.76635
6.84842
6.93249
7.01866
7.10701
7.19759
7.2905
7.38583
7.48369
7.58418
7.68741
7.7935
7.90255
8.01468
8.13005
8.24879
8.37107
8.49704
8.62684
8.76065
8.89868
9.04111
9.18817
9.34009
9.49712
9.6595
9.82754
10.0015
10.1818
10.3688
10.5627
10.764
10.9732
11.1906
11.4164
5.78734
5.84743
5.90872
5.9713
6.03521
6.10049
6.1672
6.23538
6.30509
6.37637
6.44929
6.52389
6.60024
6.67839
6.75842
6.84038
6.92436
7.01042
7.09866
7.18914
7.28194
7.37715
7.47489
7.57526
7.67838
7.78434
7.89326
8.00526
8.12049
8.23909
8.36123
8.48704
8.61669
8.75035
8.8882
9.03047
9.17735
9.32909
9.48593
9.64811
9.81594
9.98972
10.1698
10.3565
10.5501
10.7512
10.9601
11.1773
11.4034
5.77595
5.83594
5.89712
5.95957
6.02335
6.08849
6.15505
6.22307
6.29263
6.36376
6.43653
6.51097
6.58716
6.66515
6.74501
6.82681
6.91061
6.9965
7.08456
7.17486
7.26747
7.3625
7.46004
7.56021
7.66312
7.76887
7.87757
7.98935
8.10434
8.22271
8.34461
8.47017
8.59956
8.73295
8.87053
9.0125
9.15909
9.31053
9.46704
9.6289
9.79638
9.9698
10.1495
10.3358
10.529
10.7296
10.938
11.1547
11.3803
5.76461
5.824
5.88484
5.94707
6.01066
6.07563
6.14202
6.20988
6.27928
6.35025
6.42285
6.49712
6.57314
6.65096
6.73064
6.81226
6.89588
6.98159
7.06945
7.15955
7.25197
7.34679
7.44412
7.54408
7.64676
7.75228
7.86075
7.97229
8.08705
8.20516
8.32679
8.45209
8.5812
8.7143
8.85158
8.99325
9.13953
9.29063
9.4468
9.6083
9.77541
9.94845
10.1277
10.3136
10.5064
10.7065
10.9143
11.1303
11.3545
5.74584
5.80594
5.86696
5.92914
5.99258
6.05735
6.12353
6.19118
6.26036
6.33111
6.40347
6.47751
6.55329
6.63087
6.71031
6.79167
6.87503
6.96048
7.04807
7.1379
7.23003
7.32457
7.4216
7.52125
7.62363
7.72883
7.83697
7.94817
8.06258
8.18033
8.3016
8.42651
8.55523
8.68792
8.82479
8.96603
9.11186
9.2625
9.4182
9.5792
9.7458
9.91829
10.097
10.2823
10.4744
10.6739
10.8811
11.0967
11.3217
5.7292
5.78775
5.84798
5.90968
5.97278
6.03728
6.10322
6.17062
6.23954
6.31004
6.38215
6.45594
6.53145
6.60877
6.68794
6.76902
6.85211
6.93726
7.02457
7.11409
7.20592
7.30013
7.39684
7.49616
7.59819
7.70304
7.81082
7.92165
8.03567
8.15304
8.27389
8.39839
8.52668
8.65893
8.79534
8.93611
9.08144
9.23158
9.38675
9.54722
9.71325
9.88515
10.0632
10.2479
10.4394
10.6381
10.8445
11.0588
11.2806
5.70509
5.7651
5.8258
5.88755
5.95052
6.01481
6.0805
6.14764
6.2163
6.28652
6.35836
6.43186
6.50709
6.5841
6.66297
6.74376
6.82653
6.91136
6.99834
7.08753
7.17901
7.27287
7.36922
7.46817
7.56982
7.67428
7.78165
7.89207
8.00566
8.12259
8.24299
8.36703
8.49483
8.62659
8.76249
8.90273
9.04753
9.19711
9.3517
9.51156
9.67697
9.84823
10.0257
10.2096
10.4003
10.5983
10.804
11.018
11.2419
5.68049
5.73802
5.79746
5.85849
5.92097
5.98486
6.05017
6.11694
6.18524
6.2551
6.32657
6.3997
6.47454
6.55117
6.62964
6.71002
6.79238
6.87679
6.96333
7.05207
7.14309
7.23649
7.33236
7.43081
7.53195
7.63589
7.74273
7.85259
7.96562
8.08196
8.20176
8.32517
8.45234
8.58344
8.71866
8.8582
9.00228
9.15111
9.30493
9.46399
9.62858
9.79898
9.97552
10.1585
10.3483
10.5453
10.7497
10.9618
11.1806
5.65414
5.71395
5.7742
5.83541
5.8978
5.96149
6.02655
6.09307
6.1611
6.23069
6.30187
6.37471
6.44927
6.5256
6.60377
6.68384
6.76587
6.84995
6.93616
7.02455
7.11522
7.20825
7.30375
7.40182
7.50256
7.6061
7.71252
7.82195
7.93454
8.05043
8.16976
8.29269
8.41937
8.54996
8.68465
8.82365
8.96717
9.11542
9.26865
9.4271
9.59106
9.76081
9.93667
10.119
10.308
10.5043
10.7081
10.9202
11.1427
5.61776
5.67413
5.73265
5.79286
5.85454
5.91765
5.9822
6.04821
6.11574
6.18481
6.25548
6.32779
6.4018
6.47758
6.55518
6.63466
6.71609
6.79956
6.88513
6.97288
7.06289
7.15524
7.25003
7.34738
7.44738
7.55015
7.65579
7.76443
7.87618
7.99122
8.10968
8.23171
8.35745
8.48708
8.62079
8.75877
8.90124
9.04841
9.20052
9.35781
9.52058
9.68911
9.86371
10.0447
10.2324
10.4272
10.6294
10.839
11.0545
5.59343
5.65285
5.71253
5.77309
5.83481
5.89782
5.96221
6.02804
6.09536
6.16423
6.23468
6.30676
6.38055
6.45608
6.53343
6.61266
6.69383
6.77702
6.86232
6.94978
7.03949
7.13153
7.22601
7.32304
7.42272
7.52515
7.63044
7.73871
7.8501
7.96476
8.08283
8.20445
8.32978
8.45899
8.59225
8.72978
8.87178
9.01846
9.17008
9.32687
9.48912
9.65712
9.83118
10.0116
10.1989
10.3932
10.5951
10.8053
11.0261
5.54007
5.5951
5.65258
5.71187
5.7727
5.83499
5.8987
5.96385
6.03049
6.09865
6.16839
6.23973
6.31275
6.3875
6.46404
6.54243
6.62275
6.70507
6.78946
6.876
6.96476
7.05583
7.14931
7.24531
7.34393
7.44528
7.54945
7.65657
7.76678
7.88022
7.99704
8.11737
8.24137
8.3692
8.50106
8.63713
8.77762
8.92275
9.07277
9.22791
9.38845
9.5547
9.72697
9.90559
10.0909
10.2833
10.4831
10.6901
10.9024
5.52232
5.58135
5.64059
5.70067
5.76185
5.82427
5.88801
5.95314
6.01974
6.08784
6.15749
6.22873
6.30164
6.37628
6.4527
6.53097
6.61116
6.69334
6.77759
6.86398
6.95259
7.0435
7.13682
7.23265
7.3311
7.43227
7.53627
7.6432
7.75322
7.86646
7.98307
8.10319
8.22698
8.35459
8.48621
8.62204
8.76229
8.90718
9.05693
9.21181
9.37209
9.53807
9.71008
9.88847
10.0736
10.2659
10.466
10.6748
10.8952
5.44438
5.5
5.55741
5.6163
5.67653
5.73807
5.80094
5.86518
5.93085
5.998
6.06665
6.13688
6.20873
6.28228
6.35759
6.43472
6.51373
6.59471
6.67772
6.76284
6.85014
6.93972
7.03166
7.12608
7.22308
7.32276
7.42522
7.53058
7.63898
7.75055
7.86544
7.98379
8.10575
8.23148
8.36116
8.49499
8.63317
8.77592
8.92347
9.07606
9.23398
9.39753
9.56702
9.7428
9.92527
10.1149
10.312
10.517
10.7291
5.44027
5.49748
5.55578
5.61517
5.67569
5.7374
5.80038
5.8647
5.93041
5.99758
6.06625
6.13649
6.20835
6.28191
6.35722
6.43434
6.51335
6.59432
6.67733
6.76245
6.84975
6.93932
7.03126
7.12567
7.22267
7.32234
7.42479
7.53014
7.63853
7.75009
7.86498
7.98332
8.10527
8.23099
8.36066
8.49447
8.63264
8.77538
8.92291
9.07549
9.23339
9.3969
9.56636
9.74211
9.92455
10.1141
10.3115
10.5174
10.7335
5.3399
5.39836
5.45661
5.51536
5.57499
5.63568
5.69758
5.76077
5.82532
5.89129
5.95873
6.02772
6.09831
6.17056
6.24453
6.32028
6.39789
6.47742
6.55896
6.64257
6.72832
6.8163
6.90661
6.99935
7.09462
7.19252
7.29316
7.39664
7.5031
7.61269
7.72553
7.84177
7.96156
8.08504
8.21241
8.34385
8.47956
8.61975
8.76466
8.91451
9.06958
9.23016
9.39655
9.56909
9.74814
9.93413
10.1276
10.3296
10.5425
5.34332
5.39638
5.45204
5.50952
5.56847
5.62877
5.69041
5.75339
5.81778
5.88361
5.95094
6.01981
6.09029
6.16242
6.23628
6.31192
6.38942
6.46884
6.55026
6.63376
6.71939
6.80725
6.89744
6.99005
7.08519
7.18296
7.28346
7.38681
7.49313
7.60256
7.71525
7.83134
7.95096
8.07428
8.20147
8.33273
8.46825
8.60825
8.75295
8.90258
9.0574
9.21771
9.3838
9.55597
9.73454
9.91983
10.112
10.3108
10.5134
5.24743
5.30423
5.36077
5.41792
5.47604
5.53532
5.59585
5.65771
5.72095
5.78563
5.85179
5.91948
5.98874
6.05965
6.13226
6.20662
6.28282
6.36091
6.44097
6.52306
6.60726
6.69365
6.78233
6.87339
6.96695
7.06308
7.1619
7.26352
7.36806
7.47567
7.58648
7.70062
7.81824
7.9395
8.06456
8.19363
8.32688
8.46453
8.60679
8.7539
8.90611
9.0637
9.22694
9.39612
9.57154
9.75353
9.94246
10.1391
10.3465
5.22565
5.27676
5.33059
5.38631
5.44354
5.50216
5.56214
5.6235
5.68627
5.75049
5.8162
5.88343
5.95224
6.02269
6.09484
6.16874
6.24446
6.32206
6.40162
6.48321
6.56689
6.65275
6.74088
6.83138
6.92436
7.01991
7.11812
7.21912
7.32302
7.42996
7.54009
7.65354
7.77044
7.89095
8.01525
8.14351
8.27595
8.41275
8.55413
8.70033
8.85159
9.00818
9.17038
9.33845
9.5127
9.69336
9.88056
10.074
10.2707
5.14609
5.20172
5.25694
5.31271
5.36943
5.42731
5.48645
5.54694
5.60881
5.67211
5.73689
5.80317
5.87102
5.94049
6.01164
6.08452
6.1592
6.23573
6.3142
6.39467
6.4772
6.56188
6.64881
6.73808
6.82978
6.92402
7.02089
7.12051
7.22299
7.32847
7.43709
7.54899
7.66429
7.78315
7.90575
8.03226
8.16288
8.29781
8.43725
8.58145
8.73064
8.88509
9.04507
9.21086
9.38275
9.56103
9.74611
9.93884
10.1426
5.09166
5.14086
5.1929
5.24686
5.30238
5.3593
5.41758
5.47724
5.5383
5.60078
5.66472
5.73015
5.79714
5.86574
5.93599
6.00794
6.08167
6.15724
6.23472
6.31417
6.39566
6.47927
6.5651
6.65324
6.74379
6.83684
6.93249
7.03085
7.13204
7.23619
7.34345
7.45393
7.56778
7.68514
7.80619
7.93111
8.06008
8.19331
8.33101
8.47339
8.62071
8.77324
8.93125
9.09501
9.26482
9.44093
9.62351
9.81213
10.0037
5.03665
5.09096
5.14483
5.19927
5.25469
5.31127
5.36912
5.42829
5.48882
5.55076
5.61414
5.67901
5.74541
5.8134
5.88302
5.95434
6.02741
6.1023
6.17909
6.25783
6.33859
6.42146
6.50652
6.59387
6.68361
6.77583
6.87063
6.96811
7.06839
7.17162
7.27791
7.38741
7.50024
7.61655
7.73652
7.86033
7.98815
8.12019
8.25667
8.39779
8.54382
8.69502
8.85168
9.01409
9.18258
9.35751
9.53932
9.72895
9.92993
4.94082
4.98794
5.03818
5.0905
5.14443
5.19977
5.25643
5.31441
5.37373
5.43442
5.49651
5.56005
5.62508
5.69165
5.75983
5.82966
5.90121
5.97454
6.04972
6.12681
6.20588
6.28701
6.37029
6.45582
6.54368
6.63397
6.72678
6.82221
6.9204
7.02146
7.12553
7.23273
7.34319
7.45707
7.57453
7.69574
7.82089
7.95017
8.0838
8.22198
8.36497
8.51305
8.66649
8.8256
8.99074
9.16227
9.34047
9.52509
9.71288
4.9167
4.96981
5.02297
5.07675
5.13141
5.1871
5.24392
5.30195
5.36126
5.42189
5.4839
5.54733
5.61224
5.67869
5.74672
5.8164
5.88779
5.96096
6.03597
6.11289
6.19178
6.27273
6.35582
6.44115
6.52881
6.61889
6.71149
6.80671
6.90467
7.0055
7.10933
7.21629
7.3265
7.44013
7.55732
7.67825
7.80312
7.93211
8.06543
8.20331
8.34599
8.49374
8.64687
8.80569
8.97061
9.1421
9.32093
9.50869
9.70998
4.7687
4.82066
4.87267
4.9252
4.9785
5.03273
5.08801
5.14443
5.20205
5.26094
5.32115
5.38273
5.44573
5.51021
5.57624
5.64386
5.71314
5.78414
5.85693
5.93157
6.00812
6.08667
6.16729
6.25009
6.33515
6.42256
6.51241
6.60481
6.69986
6.7977
6.89845
7.00223
7.10917
7.21942
7.33314
7.45049
7.57165
7.69681
7.82618
7.95996
8.09841
8.24177
8.39034
8.54442
8.70437
8.87061
9.04367
9.22426
9.41331
4.7744
4.82248
4.87273
4.92446
4.97741
5.03148
5.08668
5.14306
5.20067
5.25954
5.31973
5.38129
5.44428
5.50875
5.57476
5.64237
5.71163
5.78261
5.85538
5.92999
6.00653
6.08505
6.16566
6.24843
6.33347
6.42085
6.51068
6.60305
6.69807
6.79589
6.89661
7.00036
7.10728
7.2175
7.33118
7.4485
7.56963
7.69475
7.82408
7.95782
8.09621
8.2395
8.38798
8.54191
8.70161
8.86739
9.03951
9.21785
9.40059
4.62755
4.67894
4.7296
4.7805
4.83209
4.88461
4.93816
4.99284
5.04872
5.10583
5.16424
5.22398
5.28511
5.34769
5.41176
5.47738
5.54461
5.61351
5.68415
5.75659
5.83088
5.90711
5.98536
6.06571
6.14826
6.23309
6.32029
6.40995
6.5022
6.59715
6.69493
6.79565
6.89944
7.00643
7.11679
7.23067
7.34826
7.46972
7.59526
7.72508
7.8594
7.99848
8.14254
8.29187
8.4467
8.60735
8.77413
8.94777
9.13129
4.60451
4.64895
4.69621
4.74528
4.79575
4.84746
4.90037
4.95447
5.00981
5.06641
5.12431
5.18356
5.24419
5.30626
5.36982
5.43493
5.50163
5.56999
5.64008
5.71195
5.78567
5.8613
5.93894
6.01867
6.10058
6.18475
6.27127
6.36024
6.45177
6.54598
6.643
6.74294
6.84593
6.95209
7.06159
7.1746
7.29127
7.41179
7.53635
7.66515
7.79842
7.9364
8.07931
8.2274
8.3809
8.54
8.70469
8.87432
9.04521
4.49349
4.54249
4.59087
4.63961
4.68916
4.7397
4.79135
4.84417
4.8982
4.95348
5.01005
5.06794
5.12719
5.18786
5.24999
5.31363
5.37884
5.44567
5.51419
5.58446
5.65653
5.73047
5.80638
5.88433
5.96441
6.0467
6.13129
6.21827
6.30776
6.39987
6.49473
6.59243
6.69312
6.79691
6.90397
7.01445
7.12852
7.24635
7.36813
7.49407
7.62437
7.75926
7.89899
8.04379
8.19391
8.34958
8.5111
8.67924
8.85749
4.41594
4.45784
4.50253
4.54907
4.59703
4.64627
4.69673
4.7484
4.8013
4.85545
4.91086
4.96758
5.02565
5.08511
5.146
5.20838
5.27229
5.3378
5.40496
5.47383
5.54447
5.61695
5.69135
5.76776
5.84625
5.92691
6.00983
6.09509
6.1828
6.27309
6.36606
6.46184
6.56053
6.66227
6.76721
6.8755
6.98731
7.10281
7.22218
7.34563
7.47336
7.60562
7.74263
7.88465
8.03191
8.18465
8.34294
8.50625
8.6712
4.35102
4.39793
4.44431
4.49116
4.53887
4.58763
4.63751
4.68856
4.74081
4.79429
4.84901
4.90503
4.96237
5.02108
5.08122
5.14281
5.20592
5.2706
5.33692
5.40492
5.47468
5.54624
5.61971
5.69515
5.77266
5.8523
5.93417
6.01836
6.10497
6.19412
6.28593
6.38049
6.47794
6.5784
6.68202
6.78895
6.89935
7.01341
7.13129
7.2532
7.37934
7.50997
7.64533
7.78569
7.93134
8.08264
8.24002
8.40443
8.57942
4.2117
4.25095
4.29322
4.33749
4.38326
4.4303
4.47851
4.52788
4.5784
4.6301
4.683
4.73712
4.79253
4.84925
4.90734
4.96683
5.02779
5.09026
5.15432
5.22
5.28736
5.35648
5.42743
5.5003
5.57515
5.65207
5.73114
5.81245
5.8961
5.9822
6.07086
6.16219
6.25631
6.35333
6.45341
6.55668
6.6633
6.77346
6.88731
7.00506
7.12691
7.2531
7.38388
7.51954
7.6604
7.80683
7.95916
8.11731
8.27836
4.19712
4.24194
4.28721
4.33313
4.37985
4.42745
4.476
4.52558
4.57624
4.62802
4.68096
4.73512
4.79053
4.84726
4.90534
4.96482
5.02575
5.08821
5.15224
5.2179
5.28524
5.35433
5.42526
5.49809
5.57291
5.6498
5.72884
5.81012
5.89373
5.9798
6.06843
6.15972
6.2538
6.35079
6.45082
6.55405
6.66063
6.77074
6.88455
7.00225
7.12406
7.2502
7.38094
7.51657
7.65745
7.80408
7.95726
8.11883
8.29403
3.98905
4.03556
4.08073
4.12561
4.17071
4.21643
4.26291
4.31028
4.35864
4.40803
4.45851
4.51013
4.56293
4.61696
4.67229
4.72898
4.78705
4.84655
4.90753
4.97006
5.0342
5.10001
5.16757
5.23695
5.30822
5.38144
5.45671
5.53412
5.61378
5.69577
5.7802
5.86717
5.95678
6.04916
6.14445
6.2428
6.34432
6.44919
6.55757
6.66966
6.78566
6.90579
7.03026
7.15935
7.29335
7.43261
7.57758
7.72898
7.88829
4.00039
4.03983
4.08169
4.12499
4.16939
4.21477
4.26108
4.30835
4.35665
4.40601
4.45648
4.50806
4.56082
4.61484
4.67017
4.72683
4.78486
4.84432
4.90527
4.96778
5.0319
5.09769
5.16522
5.23456
5.30579
5.37898
5.45422
5.53162
5.61124
5.6932
5.77758
5.86449
5.95406
6.04641
6.14166
6.23994
6.34141
6.44622
6.55455
6.66658
6.7825
6.90252
7.02686
7.15574
7.28937
7.42791
7.57128
7.7186
7.86567
3.83175
3.87405
3.91579
3.95781
4.00047
4.04391
4.08823
4.1335
4.17978
4.22708
4.27543
4.32488
4.37549
4.42732
4.4804
4.53474
4.59039
4.64742
4.70591
4.76588
4.8274
4.89051
4.95529
5.0218
5.09013
5.16036
5.23256
5.3068
5.38318
5.46179
5.54274
5.62613
5.71207
5.80066
5.89203
5.98631
6.08365
6.1842
6.28813
6.39559
6.50677
6.62188
6.74111
6.86465
6.9927
7.1254
7.26292
7.40574
7.55662
3.77884
3.81504
3.85359
3.89371
3.935
3.97733
4.02069
4.06506
4.11045
4.15687
4.20435
4.25296
4.30272
4.35367
4.40582
4.45923
4.51395
4.57004
4.62756
4.68654
4.74702
4.80907
4.87276
4.93818
5.00539
5.07445
5.14545
5.21845
5.29355
5.37085
5.45046
5.53246
5.61697
5.70408
5.79392
5.88663
5.98236
6.08124
6.18343
6.2891
6.39843
6.51162
6.62886
6.75033
6.87622
7.00665
7.14161
7.28058
7.42057
3.66544
3.70514
3.74437
3.78397
3.82425
3.86539
3.90746
3.95049
3.99452
4.03957
4.08569
4.1329
4.18124
4.23071
4.28137
4.33326
4.38644
4.44095
4.49684
4.55414
4.6129
4.67319
4.7351
4.79867
4.86398
4.93108
5.00006
5.071
5.14398
5.21911
5.29647
5.37615
5.45826
5.54291
5.63022
5.72031
5.81333
5.90942
6.00873
6.11142
6.21768
6.3277
6.44165
6.55977
6.68224
6.8093
6.94125
7.0788
7.22496
3.5449
3.57831
3.61403
3.65125
3.68966
3.72913
3.76958
3.81102
3.85345
3.89689
3.94137
3.9869
4.03349
4.08119
4.13006
4.18012
4.23143
4.284
4.33789
4.39315
4.44984
4.50801
4.56773
4.62905
4.69204
4.75677
4.82331
4.89175
4.96216
5.03462
5.10923
5.1861
5.26531
5.34697
5.43119
5.5181
5.60783
5.70053
5.79634
5.89542
5.99795
6.10411
6.2141
6.32816
6.44649
6.56933
6.69685
6.82883
6.96279
3.49003
3.52714
3.56418
3.60171
3.63999
3.6791
3.71911
3.76005
3.80195
3.84485
3.88875
3.93366
3.97963
4.02671
4.07494
4.12434
4.17495
4.22682
4.27999
4.33452
4.39046
4.44786
4.50677
4.56726
4.62941
4.69328
4.75894
4.82646
4.89592
4.96741
5.04103
5.11687
5.19503
5.2756
5.35869
5.44444
5.53298
5.62445