/*--------------------------------*- C++ -*----------------------------------*\
  =========                 |
  \\      /  F ield         | OpenFOAM: The Open Source CFD Toolbox
   \\    /   O peration     | Website:  https://openfoam.org
    \\  /    A nd           | Version:  6
     \\/     M anipulation  |
\*---------------------------------------------------------------------------*/
FoamFile
{
    version     2.0;
    format      ascii;
    class       volScalarField;
    location    "90";
    object      gradTz;
}
// * * * * * * * * * * * * * * * * * * * * * * * * * * * * * * * * * * * * * //

dimensions      [0 -1 0 1 0 0 0];

internalField   nonuniform List<scalar> 
13524
(
0
-2.90807e-17
0
3.50334e-17
0
-1.13781e-16
-3.63611e-16
2.98512e-16
-4.8479e-16
7.35254e-16
-6.84601e-16
-5.50632e-16
1.01859e-15
-6.14158e-16
-1.07516e-15
-2.43867e-16
7.97599e-16
-2.22797e-16
-4.79837e-16
-2.57701e-16
0
9.16884e-16
-5.65972e-16
-1.64505e-15
-7.13738e-16
-3.79046e-16
-2.44816e-15
1.24146e-15
4.5086e-16
0
-5.0367e-16
-5.31664e-16
0
5.91378e-16
6.23132e-16
1.99229e-15
-1.35775e-15
1.47912e-15
-2.26867e-15
0
0
0
-9.34229e-16
5.89222e-20
0
5.95514e-20
0
1.19724e-15
1.29603e-15
8.16088e-17
1.07494e-16
-1.32996e-16
0
2.50219e-16
-9.27618e-17
4.32269e-16
-6.42119e-16
4.39596e-16
1.05028e-16
2.36168e-16
1.31581e-16
0
1.59941e-16
1.74831e-16
3.80564e-16
0
4.45623e-16
2.39939e-16
-5.4539e-16
1.35065e-15
1.50763e-15
-1.89093e-15
1.64539e-15
-7.47999e-16
1.48194e-15
4.02062e-16
-1.74117e-15
1.76626e-15
1.46962e-15
-1.99551e-15
2.12746e-15
-1.66187e-15
2.22151e-17
-2.49317e-15
-2.30352e-17
0
-2.93329e-15
1.5041e-15
0
-8.45624e-16
0
-4.16115e-20
-1.96364e-15
0
-1.08415e-15
0
-1.19724e-15
-1.35198e-20
7.19307e-17
-9.20503e-17
-2.46596e-17
0
-4.58303e-17
-1.13865e-16
-6.83817e-17
3.43231e-16
-4.68867e-17
-3.97043e-16
-1.18093e-16
-1.31576e-16
0
-1.59936e-16
0
-1.9029e-16
-2.06288e-16
-2.22819e-16
0
-2.57722e-16
-1.41125e-15
1.14996e-15
-3.15029e-16
-1.37543e-15
-7.81372e-16
1.86089e-15
0
-4.26025e-16
-4.5088e-16
4.76757e-16
-1.53125e-15
1.04302e-15
-5.82394e-16
2.95737e-15
-1.84704e-15
-6.79852e-16
-4.82305e-17
2.15633e-15
7.64767e-16
0
2.56467e-15
-1.7495e-15
2.83266e-15
-9.51441e-16
0
0
2.31332e-15
-2.35912e-15
3.8125e-15
0
0
1.43563e-16
-1.20152e-16
4.58462e-17
-1.92389e-16
2.52054e-16
4.23674e-16
1.37995e-16
-3.97262e-16
1.18119e-16
0
1.45545e-16
0
-7.25984e-16
9.25104e-16
-6.46685e-16
1.08643e-15
0
0
2.76169e-16
0
3.15066e-16
-3.35617e-16
-1.10503e-15
1.86124e-15
-4.02123e-16
-8.46743e-21
0
4.76801e-16
-5.24002e-16
1.57497e-15
0
-5.91445e-16
-6.23201e-16
6.56335e-16
7.1536e-16
-1.42953e-15
-7.64825e-16
-2.43999e-15
4.22905e-15
-1.74971e-15
-2.83295e-15
2.91535e-15
1.03179e-15
0
1.13933e-15
1.19729e-15
-1.25831e-15
0
0
-2.46685e-17
1.60863e-16
-2.08428e-16
2.49167e-16
-2.5189e-16
-4.23502e-16
2.54661e-16
4.43665e-16
-5.66849e-16
0
4.61681e-16
-6.14407e-16
0
-9.78496e-16
1.65063e-15
-1.08621e-15
-9.88949e-16
7.43805e-16
8.59014e-16
-1.44526e-15
9.77349e-16
-9.74147e-16
0
-1.93038e-15
1.97509e-15
4.2603e-16
0
-4.76782e-16
-5.03714e-16
-5.31758e-16
0
5.91422e-16
-1.26915e-15
6.33153e-16
2.09701e-15
-1.42936e-15
7.64795e-16
8.04291e-16
-8.45625e-16
0
2.83271e-15
-2.91511e-15
-1.03175e-15
1.11763e-15
-1.07051e-15
-3.55637e-15
1.25826e-15
0
0
1.18876e-16
-1.20134e-16
0
5.6932e-17
-2.95604e-16
2.98871e-16
-3.92795e-16
3.97233e-16
-4.96532e-16
5.02272e-16
1.45528e-16
0
0
0
-6.46662e-16
-2.79129e-16
1.82253e-16
1.9855e-16
1.07462e-15
1.80304e-15
-9.13555e-16
1.71128e-15
-1.03747e-15
0
0
4.26026e-16
4.50902e-16
-4.7678e-16
0
1.61618e-15
-5.40005e-16
-1.20507e-15
1.20113e-15
1.2896e-15
6.90902e-16
1.47935e-15
-1.50421e-15
8.04298e-16
8.45632e-16
0
1.89862e-15
-9.51605e-16
-2.09589e-15
3.22003e-15
0
-1.23357e-15
5.03427e-15
-4.76209e-18
1.45515e-17
-1.187e-16
1.19956e-16
0
-1.13843e-16
6.83674e-17
0
0
-4.43575e-16
3.30566e-16
0
-2.27095e-20
0
-1.74837e-16
7.88087e-16
-1.51358e-16
-1.56001e-15
9.31107e-16
-1.06065e-15
2.1538e-16
2.06692e-15
-1.54334e-15
-3.35589e-16
1.1047e-15
-1.10273e-15
1.64424e-15
7.33725e-17
-2.21691e-15
1.9266e-15
-9.87506e-16
-5.31744e-16
5.82357e-16
-1.16104e-15
-3.11653e-20
0
-3.21682e-20
-7.26984e-16
0
-8.04278e-16
8.73432e-16
-2.66722e-15
9.04945e-16
-9.81824e-16
-2.09566e-15
2.13558e-15
2.3133e-15
-3.55635e-15
0
4.7622e-18
-1.30293e-21
1.1877e-16
-1.20026e-16
0
5.69139e-17
-6.83688e-17
-3.43251e-16
3.47086e-16
0
6.14435e-16
-5.02093e-16
-7.52698e-16
6.14379e-16
1.74841e-16
0
2.06248e-16
9.1964e-16
-2.16009e-15
1.00153e-15
-1.41128e-15
2.36232e-15
-2.52078e-15
1.30974e-15
0
1.17222e-15
-2.81526e-15
1.24167e-15
-9.20824e-16
4.57517e-16
0
-5.31711e-16
0
0
-1.89231e-15
2.62564e-15
-2.04877e-15
1.51915e-20
0
8.04246e-16
-1.71912e-15
1.74953e-15
1.86847e-15
0
1.03172e-15
0
1.13926e-15
0
-1.8872e-17
0
-1.45505e-17
-1.18671e-16
2.80689e-16
-1.62482e-16
0
0
0
0
0
0
0
0
6.65332e-16
-6.733e-16
-7.88016e-16
-2.61171e-16
-5.62955e-17
9.3106e-16
0
0
0
0
0
-1.46155e-15
-6.94075e-17
1.17075e-15
0
9.20739e-16
3.8876e-17
-9.87472e-16
1.61592e-15
-1.10076e-15
1.20486e-15
-2.4929e-15
1.28938e-15
-1.40603e-15
6.77145e-16
1.50397e-15
8.31153e-16
-1.66384e-15
-8.88865e-16
-9.34226e-16
0
-4.15904e-15
-6.61962e-17
1.10525e-15
0
-1.25828e-15
3.35526e-17
-5.32659e-17
-2.46506e-17
3.5068e-17
0
-5.6913e-17
-2.26931e-16
2.18366e-16
0
-1.05035e-16
1.18078e-16
-1.31561e-16
-1.45502e-16
6.65301e-16
-8.48106e-16
-9.78258e-16
5.91396e-16
0
-2.39945e-16
-2.57707e-16
2.76118e-16
-1.50735e-15
2.52038e-15
-2.69834e-16
4.24426e-16
-3.09643e-16
-2.39483e-15
2.13014e-15
-2.25453e-15
4.57414e-16
-5.03673e-16
-1.08418e-15
5.39805e-16
6.13447e-16
-6.00667e-16
-1.99231e-15
1.35777e-15
-2.20607e-15
2.26869e-15
-8.04249e-16
-8.45583e-16
0
0
1.01278e-15
-2.03191e-15
0
0
1.21532e-15
-1.23987e-15
4.79481e-17
-1.02273e-16
1.28138e-16
-1.9601e-16
2.08496e-16
5.69135e-17
-1.36754e-16
5.03748e-16
-7.39886e-16
6.07242e-16
-1.18079e-16
2.63145e-16
7.52789e-16
-7.74416e-16
9.00696e-16
-5.44379e-16
1.0591e-15
-6.40614e-16
2.39947e-16
1.31854e-15
-1.62678e-15
2.95212e-16
3.1504e-16
1.71114e-15
-1.39426e-15
1.93044e-15
-1.57308e-15
-4.25993e-16
4.50868e-16
4.76746e-16
5.03678e-16
0
-2.15318e-17
1.75254e-15
-6.2314e-16
-6.79959e-16
1.35796e-15
1.45402e-15
7.90904e-16
2.62871e-17
8.4559e-16
0
9.34268e-16
9.81804e-16
3.12754e-15
-1.05155e-15
2.31346e-15
-3.57467e-15
1.23995e-15
-4.76566e-18
0
9.40735e-17
-1.1999e-16
-4.58314e-17
0
6.83833e-17
-1.60433e-16
0
-1.05052e-16
0
-1.31579e-16
0
8.25393e-16
-1.57404e-15
7.34542e-16
0
-2.2282e-16
0
0
1.41126e-15
-8.54722e-16
-1.60738e-15
1.3097e-15
-3.56912e-16
0
0
-8.70506e-16
-3.77637e-17
-3.88746e-17
9.87529e-16
0
-5.60945e-16
0
0
1.33613e-15
-1.35786e-15
-7.27001e-16
-1.55555e-15
7.77881e-16
0
0
-9.34238e-16
-1.99466e-15
3.06368e-15
-1.08415e-15
0
-1.21532e-15
1.23987e-15
0
-1.45636e-17
1.1887e-16
-2.81117e-16
-4.17369e-17
2.63599e-16
2.27203e-16
-2.18644e-16
-9.24462e-17
-1.05069e-16
0
-1.31598e-16
0
0
-4.98708e-21
0
6.46642e-16
-1.08638e-15
-2.39986e-16
-1.31867e-15
1.07461e-15
-2.95247e-16
9.77529e-16
-1.64554e-15
-7.30956e-16
3.61943e-16
-1.22438e-15
4.079e-16
0
-9.73249e-16
-4.00364e-17
1.04316e-15
-1.14348e-15
5.6978e-16
0
0
6.90911e-16
0
-2.32053e-15
3.21794e-15
-4.22895e-15
8.60743e-16
1.8986e-15
-3.92828e-15
3.09624e-15
-3.21999e-15
0
-1.19727e-15
1.8853e-17
0
2.91249e-17
0
3.50857e-17
0
-5.69388e-17
-1.58675e-16
6.41999e-16
-2.54663e-16
1.05066e-16
0
-4.19277e-16
1.16453e-15
-1.27989e-15
8.4833e-16
0
4.12572e-16
2.22836e-16
1.22892e-15
3.16938e-16
-1.07442e-15
0
6.30087e-16
6.71187e-16
7.30852e-16
4.13784e-16
4.37779e-16
8.88737e-16
-1.33394e-15
0
5.037e-16
-5.31743e-16
5.60957e-16
5.91412e-16
0
6.56293e-16
-6.90887e-16
7.27014e-16
7.64784e-16
0
1.69122e-15
-9.17755e-16
1.83921e-15
0
0
2.18506e-15
-1.12227e-15
2.41255e-15
1.83795e-17
-4.76597e-18
-1.45622e-17
-2.46626e-17
-3.37768e-21
-4.58357e-17
-3.06211e-16
1.83608e-16
0
4.85201e-16
-5.84817e-17
-5.66955e-16
4.19408e-16
-5.57439e-16
-1.59946e-16
0
-1.90301e-16
-4.12572e-16
0
-1.22905e-15
2.3203e-15
-1.35072e-15
0
-6.30091e-16
-3.35601e-16
-3.56924e-16
3.96641e-16
-1.18866e-15
-4.26029e-16
4.50904e-16
-4.76771e-16
-1.08215e-20
1.09776e-20
-1.12194e-15
-1.79645e-15
1.22401e-15
-1.31261e-15
7.15328e-16
-2.88352e-15
-2.32048e-15
1.58229e-15
8.7358e-16
5.71465e-17
-1.83934e-15
0
-1.04792e-15
-3.3091e-17
2.27908e-15
-1.17964e-15
-1.27714e-15
-3.83503e-17
-3.91663e-17
2.46777e-16
-1.55067e-16
9.16602e-17
1.03934e-20
0
4.23426e-16
-4.39491e-16
1.05056e-16
1.181e-16
2.63152e-16
0
3.1987e-16
1.74844e-16
-4.07534e-16
1.00406e-15
2.22808e-16
2.39966e-16
1.06065e-15
-1.07434e-15
0
-1.61092e-17
6.54832e-16
-3.739e-16
3.44367e-16
1.5906e-15
0
4.50864e-16
1.92659e-15
-3.02242e-15
1.57473e-15
1.12188e-15
5.91399e-16
-6.45973e-16
2.60196e-15
6.90874e-16
1.45399e-15
2.3203e-15
-2.41331e-15
1.66387e-15
-9.17754e-16
1.83917e-15
9.8179e-16
0
1.08414e-15
-1.15665e-15
1.17955e-15
0
4.76446e-18
0
-2.46565e-17
-1.60903e-16
1.16798e-16
5.69223e-17
0
-8.02057e-17
0
0
0
4.19303e-16
-5.57317e-16
5.05562e-16
-1.22527e-16
-9.24863e-16
0
-2.22812e-16
0
-7.88084e-16
8.13339e-16
0
-3.15021e-16
0
7.30857e-16
-7.40937e-16
4.20095e-16
3.67004e-17
-1.33393e-15
-4.76749e-16
5.03681e-16
0
-5.60938e-16
0
-2.50483e-20
6.79891e-16
4.82316e-17
-6.77157e-16
-1.50407e-15
-8.04259e-16
8.45566e-16
-8.88878e-16
0
-9.81807e-16
-1.0317e-15
-2.16829e-15
-1.1567e-15
-1.76163e-17
0
4.75797e-18
0
0
1.60753e-16
-1.62472e-16
0
0
0
3.00089e-16
-3.96909e-16
4.96192e-16
-5.01928e-16
0
-6.6529e-16
1.39884e-15
-7.34372e-16
8.52556e-16
5.6293e-17
-9.31005e-16
5.30259e-16
3.03685e-17
-5.74887e-16
0
6.87617e-16
-6.96973e-16
7.75519e-16
-7.86366e-16
0
0
0
-5.03623e-16
0
0
0
-6.23114e-16
0
0
0
-1.55544e-15
1.58203e-15
-8.45561e-16
-9.03265e-16
1.85371e-15
0
1.0317e-15
1.08413e-15
0
1.19721e-15
0
-4.30987e-17
-3.91474e-17
7.8701e-17
1.60768e-16
-3.66689e-16
2.06409e-16
2.95318e-16
-2.98581e-16
9.23851e-17
0
4.96197e-16
-5.01933e-16
0
-5.05399e-16
6.73262e-16
-1.90247e-16
-4.26279e-16
4.31575e-16
0
0
0
0
6.46082e-16
-6.54754e-16
-3.73878e-16
7.40817e-16
0
-8.70407e-16
8.82931e-16
-9.73011e-16
1.49105e-15
0
1.14323e-15
-1.16096e-15
1.26902e-15
-1.96913e-15
2.76373e-15
-1.42922e-15
-7.77723e-16
7.91017e-16
8.5948e-16
-8.74692e-16
-9.3417e-16
-9.97283e-16
1.01592e-15
0
0
1.1972e-15
0
-4.31284e-17
5.33132e-17
0
-1.9588e-16
1.6254e-16
0
-3.6373e-16
2.98639e-16
0
4.43546e-16
-4.48615e-16
-5.50745e-16
4.11705e-16
-1.59895e-16
3.62821e-16
4.07295e-16
-6.05082e-16
0
2.39918e-16
-2.57679e-16
2.7609e-16
0
-3.14983e-16
3.35532e-16
7.30777e-16
-7.40852e-16
1.22412e-15
-1.27823e-15
8.82968e-16
9.73048e-16
-4.83827e-16
-5.31679e-16
0
5.91342e-16
-6.23096e-16
1.33607e-15
-1.35779e-15
-7.26948e-16
7.64712e-16
8.04209e-16
8.59503e-16
1.41128e-17
1.88337e-15
1.51616e-17
-1.04782e-15
-1.11721e-15
2.26148e-15
-1.1972e-15
2.53537e-15
4.76099e-18
-7.27151e-18
-1.23253e-17
2.13374e-16
4.1718e-17
4.26262e-17
1.11918e-16
-2.58506e-16
0
-1.6924e-16
2.24289e-16
6.57766e-17
4.49002e-16
-6.39772e-16
4.24055e-16
-5.84243e-16
6.05057e-16
4.5973e-16
-8.25392e-16
7.87944e-16
-8.13196e-16
-6.06063e-16
9.29069e-16
-3.35527e-16
-3.56859e-16
5.86011e-16
-1.1884e-15
4.44463e-16
-8.82936e-16
9.73015e-16
-1.49106e-15
5.31672e-16
0
-5.91334e-16
-6.45934e-16
6.33107e-16
0
1.10299e-15
-1.51666e-15
-8.04197e-16
-8.59479e-16
-1.41242e-17
-9.34175e-16
1.55372e-17
-2.57955e-15
3.25269e-15
-3.98766e-15
-3.57777e-17
-6.47497e-16
0
6.34193e-17
-7.87931e-17
-1.7534e-17
-2.29122e-17
-2.77637e-16
2.519e-16
-4.23465e-16
3.00893e-16
-5.25148e-17
-5.90414e-17
-1.3156e-16
3.03596e-16
-2.27227e-16
5.8537e-21
3.94072e-16
-3.98907e-16
4.59809e-16
2.68797e-16
-3.71898e-16
0
0
1.57505e-16
6.87712e-16
-6.97069e-16
3.79038e-16
0
0
2.25429e-16
7.34744e-16
-9.87528e-16
0
2.80461e-16
0
-3.11563e-16
0
7.03045e-16
1.23055e-17
0
-8.17728e-16
4.09162e-16
9.03325e-16
2.96134e-17
-4.75737e-16
-1.61529e-17
1.06781e-15
-6.74702e-21
5.98609e-16
6.29124e-16
-2.38216e-18
7.27813e-18
-4.79062e-22
0
-1.02139e-16
1.31702e-16
0
4.01003e-17
-2.05847e-21
-5.25212e-17
5.90403e-17
-2.48148e-21
0
-1.59923e-16
2.75425e-16
-3.67241e-16
-4.26332e-16
3.20226e-16
-1.1997e-16
-1.2885e-16
0
-1.47604e-16
-3.15007e-16
-6.8767e-16
5.18581e-16
-1.89519e-16
0
8.70458e-16
-1.10841e-15
-9.73065e-16
2.01499e-15
-1.04296e-15
2.91185e-16
-8.76188e-16
3.11557e-16
0
0
-7.26969e-16
7.77747e-16
-7.91041e-16
1.28228e-15
-1.778e-15
9.19564e-16
5.06417e-16
-2.5796e-15
5.25707e-16
-1.15663e-15
5.80936e-16
1.9062e-15
-3.60145e-17
7.77839e-17
3.23298e-17
-6.00278e-17
1.25091e-16
-1.03283e-16
0
0
4.62111e-17
-1.69318e-16
2.24376e-16
6.57846e-17
-7.27569e-17
4.12715e-16
-3.36736e-16
0
0
5.71233e-16
-9.60086e-16
1.16e-15
-5.37214e-16
1.47606e-16
1.57507e-16
0
7.30851e-16
-7.40935e-16
-2.01035e-16
0
0
2.38369e-16
0
0
-5.71679e-16
2.73764e-16
6.11954e-16
0
0
3.63491e-16
0
0
8.59547e-16
-8.74761e-16
9.49223e-16
-9.66639e-16
0
5.42068e-16
-2.15587e-21
0
-6.29122e-16
1.91812e-17
-1.93799e-17
0
0
0
-1.24569e-16
1.2593e-16
1.71616e-16
2.27692e-17
-1.98521e-16
0
2.09624e-16
-5.09455e-16
2.27208e-16
3.6286e-16
-4.62399e-16
0
-1.11404e-16
0
-2.5771e-16
0
-1.47606e-16
0
-1.67782e-16
9.09255e-16
-9.30412e-16
-2.10026e-16
6.39134e-16
1.88814e-17
-4.67103e-16
-5.13765e-16
5.21491e-16
0
0
0
0
0
0
0
0
0
-9.03295e-16
-4.96717e-16
1.96391e-15
-2.06376e-15
5.25713e-16
5.69613e-16
6.0765e-16
-6.19926e-16
-1.91954e-17
1.93944e-17
0
8.04487e-17
-8.13091e-17
0
1.47742e-16
-1.49375e-16
0
-2.21837e-16
4.72567e-16
-1.85278e-16
0
-2.52783e-16
3.36733e-16
9.51418e-17
0
1.11405e-16
-4.94469e-16
6.29625e-16
5.67578e-16
-1.03355e-15
6.14193e-16
-1.76081e-16
3.48543e-16
1.89526e-16
0
-2.22265e-16
4.41523e-16
0
5.13789e-16
-5.21515e-16
0
0
0
0
0
7.3959e-16
-7.5202e-16
-8.17731e-16
8.31953e-16
-9.03326e-16
1.38671e-15
0
0
-8.38357e-18
5.61138e-16
0
0
0
7.27782e-18
0
0
2.29123e-17
0
0
1.31515e-16
-1.73534e-16
0
-2.48165e-16
2.51034e-16
7.27539e-17
0
0
-9.51391e-17
0
0
3.6719e-16
-2.50366e-16
4.21829e-16
1.55833e-17
1.59989e-17
-8.39036e-16
7.13926e-16
-5.59966e-16
2.0103e-16
0
0
-2.38365e-16
5.13765e-16
2.0624e-17
-5.50391e-16
6.02436e-16
-1.24647e-15
-2.33491e-17
6.78907e-16
-7.3956e-16
7.5199e-16
0
0
0
-4.7459e-16
4.83298e-16
5.23906e-16
-5.33885e-16
0
-6.07648e-16
6.19924e-16
1.19103e-18
-3.63888e-18
6.16379e-18
-7.16709e-17
6.98433e-17
1.42301e-17
-1.70938e-17
2.00513e-17
0
0
-2.95212e-17
2.75426e-16
-6.91375e-16
1.40823e-16
2.12069e-16
-5.43274e-17
1.99454e-16
0
-5.99872e-17
0
-1.38059e-16
0
7.87526e-17
5.11635e-16
1.68818e-17
3.01635e-16
-1.10584e-15
4.169e-16
1.12714e-16
-2.48184e-16
4.93759e-16
-1.32926e-16
1.4023e-16
6.02449e-16
-1.24649e-15
6.44709e-16
1.7271e-16
1.81743e-16
1.91184e-16
0
2.11391e-16
4.51655e-16
-4.59793e-16
0
7.81838e-16
-5.33894e-16
0
2.99298e-16
0
-2.38188e-18
-7.27755e-18
-4.76848e-22
-1.75362e-17
-2.29114e-17
1.10336e-16
-1.99782e-16
7.46727e-17
-7.50452e-17
-3.79023e-17
-1.19098e-17
2.30325e-16
-1.39311e-16
1.26375e-16
-3.49775e-16
1.36057e-16
-5.15627e-17
-5.56995e-17
-1.1997e-16
-6.44248e-17
6.90274e-17
3.76859e-16
-3.07074e-16
8.38877e-17
8.92206e-17
-4.8255e-16
5.9424e-16
5.41726e-16
-4.41496e-16
1.1918e-16
1.25913e-16
2.65848e-16
5.71642e-16
-7.33882e-16
4.61735e-16
0
-1.50046e-21
3.69775e-16
-7.64866e-16
5.96575e-16
-1.55068e-21
2.22208e-16
2.33548e-16
2.45439e-16
-2.5792e-16
2.71025e-16
-2.93509e-16
-1.78842e-17
6.19922e-16
-8.40276e-18
-6.15429e-18
1.35267e-17
8.76781e-18
6.25309e-17
-5.16277e-17
1.70928e-17
2.00498e-17
-9.81516e-17
1.2552e-16
1.83121e-16
1.21881e-17
-6.65637e-17
2.06337e-16
-2.12058e-16
4.75674e-17
3.16298e-16
-3.90015e-16
2.9277e-16
6.44249e-17
-6.12462e-22
-6.24717e-22
-7.87507e-17
-4.27729e-16
2.59299e-16
9.47583e-17
2.05527e-16
-9.73185e-17
-4.50939e-16
1.14369e-16
-7.07648e-22
-7.15529e-22
-4.2605e-16
2.90254e-16
-4.73047e-16
-1.16746e-17
1.66744e-16
-5.51518e-16
3.75992e-16
-2.01054e-16
-4.22774e-16
-7.05856e-22
-2.33548e-16
7.77249e-18
-2.41985e-16
-5.25504e-16
-2.67607e-16
-1.18835e-15
-3.14553e-16
-1.19076e-18
0
-6.16279e-18
-8.76717e-18
-1.14546e-17
0
-1.70917e-17
-2.00486e-17
-2.31035e-17
-2.62578e-17
-1.83113e-16
1.584e-16
-2.24531e-16
1.53579e-16
0
-9.51332e-17
1.10043e-16
-4.457e-16
4.20002e-16
-3.14779e-16
-6.90265e-17
-2.99123e-16
7.47849e-17
-1.71916e-16
8.50371e-17
-1.89514e-16
-4.06545e-16
-1.15665e-16
-4.67544e-18
-1.19178e-16
-1.25912e-16
-2.65843e-16
-4.26042e-16
4.43622e-16
-1.44465e-16
-6.56355e-16
3.39446e-16
-1.81736e-16
-3.82356e-16
4.08842e-16
-4.15951e-16
7.22694e-18
-4.59776e-16
-2.49321e-16
5.11899e-16
-4.18832e-18
2.84911e-16
-2.94879e-16
6.29102e-16
5.95348e-19
0
3.08138e-18
8.76713e-18
5.67972e-17
-5.1622e-17
8.54595e-18
6.29489e-17
-5.49309e-17
3.93864e-17
2.95183e-17
-1.64442e-17
-3.95159e-17
5.67989e-17
0
-7.47244e-17
1.77057e-16
0
-9.36099e-17
2.48121e-17
2.41652e-16
-1.06833e-16
2.00905e-16
-3.77555e-16
2.18862e-16
4.73784e-17
1.0051e-16
5.32454e-17
1.12709e-16
3.02849e-16
-3.09819e-16
6.64605e-17
3.55927e-16
-2.90246e-16
1.55774e-16
-1.67006e-16
2.5912e-16
-8.77865e-17
1.91177e-16
-1.00525e-16
-3.48785e-18
3.29777e-16
0
3.72038e-16
-1.25023e-16
0
-4.35442e-18
5.94169e-16
-4.71824e-16
5.95404e-19
0
1.54083e-18
0
2.86378e-18
3.11396e-17
-2.29342e-17
5.01184e-18
6.63978e-17
-6.27546e-17
-7.37924e-18
-5.24026e-17
6.0559e-17
-6.31841e-17
8.41689e-17
1.18916e-17
-2.578e-17
-1.28864e-16
1.46377e-16
1.64786e-16
-9.97732e-17
1.84495e-17
1.20138e-16
-6.08774e-17
4.46086e-17
2.36892e-17
-1.0276e-16
1.84084e-16
0
-9.18352e-17
2.64734e-17
2.99121e-16
-6.74809e-17
3.69583e-17
0
-1.67005e-16
2.56072e-16
-1.3945e-16
-6.44088e-18
2.48018e-16
-2.14871e-16
5.00042e-16
-1.715e-16
1.22717e-16
2.01658e-18
-2.01223e-16
-1.44576e-16
-7.92935e-17
3.90891e-16
1.48831e-19
4.8697e-18
4.03977e-18
-6.40265e-18
2.8634e-18
-1.73465e-17
-5.8647e-19
1.36532e-17
-3.03091e-17
-2.91058e-18
3.91071e-17
3.03104e-17
-6.36733e-17
3.83914e-17
0
-3.73602e-17
4.98555e-17
7.13916e-17
-5.81906e-17
3.31424e-17
3.73658e-17
-6.31058e-18
-2.8538e-17
1.04854e-17
-8.01916e-17
6.78212e-17
-1.47932e-17
-2.89154e-17
-2.36012e-18
-1.85524e-17
2.19121e-16
3.58072e-17
-1.40246e-16
3.56014e-17
7.93129e-17
-6.00754e-17
0
4.5433e-17
0
-5.19456e-17
-3.4484e-18
1.64885e-16
-1.17706e-16
6.04094e-17
-6.54856e-17
6.56859e-17
1.05737e-16
1.13365e-16
-3.6991e-17
-1.48832e-19
0
-7.70275e-19
-1.0958e-18
0
3.55678e-18
2.63534e-25
2.5059e-18
0
0
-3.68982e-18
2.3926e-22
0
4.99701e-18
-5.46347e-18
3.50215e-22
-6.44482e-18
6.96146e-18
-7.49708e-18
0
-8.62731e-18
-9.22495e-18
-1.96864e-17
2.097e-17
6.65348e-22
0
1.25634e-17
8.30106e-22
1.40874e-17
-1.48968e-17
-1.57384e-17
0
5.45142e-22
-5.53594e-22
0
-2.05073e-17
6.47428e-22
0
-2.38967e-17
0
0
0
2.91925e-17
-9.51075e-22
9.68852e-22
0
-3.55994e-17
3.7411e-17
-7.8637e-17
0
5.77917e-18
-4.15041e-18
-1.22425e-17
1.01584e-17
-1.73465e-17
1.36019e-17
1.39306e-17
-4.04464e-17
3.65347e-18
2.80384e-17
4.11086e-18
3.79424e-17
-8.49725e-17
4.75453e-17
-1.1891e-17
-4.68429e-17
6.09116e-17
3.83964e-17
-3.12925e-17
7.95637e-17
-1.09743e-16
7.84334e-18
-5.5516e-17
1.21643e-16
-2.26134e-17
-1.02757e-16
1.58615e-16
-1.54992e-16
5.83836e-17
7.99545e-17
-9.97124e-17
1.40246e-16
7.80401e-17
-2.71227e-16
-2.9186e-18
1.72731e-16
-1.81765e-16
1.1789e-16
0
-5.45883e-17
5.28815e-17
2.82778e-17
1.24658e-16
-1.92473e-16
-2.06843e-18
1.41336e-16
7.5954e-17
-3.93494e-17
4.79616e-18
-5.75534e-18
0
2.22966e-17
-2.032e-17
0
0
5.01184e-18
4.32961e-17
-5.619e-17
0
0
0
8.31728e-17
-8.41689e-17
-8.6616e-17
9.97158e-17
-1.39239e-17
1.23601e-16
-1.25175e-16
0
7.57616e-17
-7.67651e-17
0
9.13465e-17
-1.16295e-16
-1.0276e-16
1.04217e-16
-8.69138e-17
-4.85915e-18
1.23432e-16
-3.32295e-17
-1.42907e-16
2.95726e-16
-1.14032e-16
1.67005e-16
-1.69721e-16
-1.84884e-16
1.87991e-16
2.04419e-16
-2.60819e-16
0
0
0
0
-2.0947e-18
-7.54982e-17
4.48995e-16
-7.63417e-17
9.59166e-18
-2.91738e-17
1.96867e-17
8.76715e-18
1.14545e-17
6.22792e-17
-6.29599e-17
-4.29005e-17
4.33798e-17
5.54475e-17
-2.65628e-17
1.01736e-16
4.26108e-17
-7.67877e-17
0
0
0
1.14941e-16
7.21445e-18
-1.25176e-16
0
7.37976e-17
8.27822e-17
-2.47584e-16
-8.9218e-17
0
0
0
1.12709e-16
-1.19177e-16
0
4.03968e-16
-2.75185e-16
0
0
-2.94922e-18
-2.9822e-18
0
1.91177e-16
0
0
2.25817e-16
7.40299e-18
7.67724e-18
-2.5398e-16
1.35511e-16
0
-1.45115e-16
1.66582e-16
0
-3.63864e-18
0
-8.76718e-18
-1.14546e-17
6.22811e-17
-6.29617e-17
0
0
-1.10898e-16
8.26467e-17
1.04809e-16
-1.75682e-16
1.6635e-16
-3.06289e-17
-3.8064e-16
1.99437e-16
0
0
0
0
-1.47597e-16
7.87484e-17
2.55802e-16
-8.50372e-17
0
-2.05523e-16
1.01946e-16
-1.12709e-16
1.19178e-16
2.56876e-16
-3.93659e-16
-2.85818e-16
2.90249e-16
-1.55776e-16
-1.64057e-16
5.24207e-16
-3.57313e-16
-3.82356e-16
4.08842e-16
-4.15952e-16
2.29432e-16
-6.97067e-16
2.41645e-16
0
-5.46235e-16
2.8491e-16
-2.94881e-16
5.17997e-22
8.40275e-18
-9.69296e-18
-6.16326e-18
-8.7678e-18
3.96202e-17
-6.5857e-17
5.67654e-17
-9.47241e-17
-2.31039e-17
-1.37163e-16
1.12171e-16
-3.28905e-17
-3.63755e-17
-3.99799e-17
-4.9068e-22
-2.44594e-16
1.47881e-16
-2.85593e-16
-7.44137e-17
1.85939e-16
2.83768e-16
-1.39878e-16
0
8.38878e-17
-8.92207e-17
9.4759e-17
1.05015e-16
-2.13075e-16
1.08037e-16
1.19181e-16
1.30967e-16
-1.2782e-16
1.45596e-16
-1.42415e-16
-7.3745e-22
1.6406e-16
-5.24216e-16
5.39059e-16
-7.48535e-22
6.09903e-16
-6.27346e-16
8.96061e-16
-4.59783e-16
2.45439e-16
0
2.71026e-16
-2.93513e-16
1.18835e-15
-6.33821e-16
1.19085e-18
7.27754e-18
-5.32084e-17
1.49191e-16
-1.60517e-16
-2.13166e-17
1.4302e-16
-6.57562e-17
8.67638e-17
2.62592e-17
0
-1.04811e-16
3.27474e-16
5.27515e-17
-1.24638e-16
-1.08906e-21
-1.10044e-16
2.71519e-16
5.99846e-17
-1.17051e-21
-2.83766e-16
5.90535e-16
-2.28321e-16
-1.67777e-16
1.78443e-16
1.28645e-21
4.11051e-16
-8.81437e-17
-2.16071e-16
1.36593e-21
1.25913e-16
-1.32924e-16
1.40227e-16
-4.49054e-16
7.79003e-16
-3.22343e-16
3.45415e-16
-1.81739e-16
3.82362e-16
-4.08845e-16
6.27344e-16
-6.73851e-16
6.9333e-16
-2.45439e-16
0
-2.71025e-16
2.84803e-16
9.73168e-22
6.38536e-16
0
-3.63898e-18
-4.70589e-17
-2.04245e-17
9.2756e-17
1.42301e-17
3.41879e-17
0
2.3105e-17
5.25213e-17
-2.48181e-16
3.16834e-16
3.03596e-16
-6.08596e-17
-8.09375e-17
4.75694e-17
5.15651e-17
0
1.19973e-16
6.44266e-17
-1.45721e-16
-8.93853e-17
2.28335e-16
2.5167e-16
-4.54637e-16
-1.12112e-16
6.94775e-16
0
1.12715e-16
3.67368e-16
-4.93759e-16
2.65853e-16
0
0
0
-1.64063e-16
-8.75746e-16
7.14656e-16
1.91185e-16
-2.01058e-16
8.52545e-16
1.42863e-17
-2.2624e-16
4.98661e-16
-5.07982e-16
8.38121e-18
-8.45934e-16
-1.50555e-15
-9.17778e-18
-2.38226e-18
0
-1.23275e-17
0
-2.29123e-17
-2.84615e-17
-1.81903e-16
1.09244e-16
0
-5.2521e-17
2.48165e-16
-3.16818e-16
0
-4.12679e-16
1.61858e-16
0
-1.03129e-16
0
-1.19973e-16
1.3631e-16
-4.06645e-16
1.55458e-16
-3.07077e-16
1.76065e-16
-5.26969e-16
0
-2.0103e-16
0
-4.50857e-16
4.86539e-16
-4.93747e-16
-8.07966e-16
5.50391e-16
-2.95685e-16
0
-6.68044e-16
-2.41148e-17
7.14642e-16
-7.64735e-16
0
-4.2278e-16
0
-4.67101e-16
0
5.23906e-16
1.65437e-17
-5.61119e-16
-1.80775e-21
-9.43135e-18
2.38229e-18
0
-4.70662e-17
4.2485e-17
-1.25087e-16
1.3174e-16
-3.41894e-17
4.01037e-17
0
1.69314e-16
-2.83417e-16
-2.7544e-16
-9.7706e-17
3.07204e-16
1.74847e-16
3.94089e-16
-8.25308e-16
4.3168e-16
0
1.28857e-16
7.0564e-16
3.11673e-17
-6.14193e-16
1.67783e-16
1.7845e-16
0
2.01034e-16
0
2.25433e-16
0
0
-2.65857e-16
5.71675e-16
3.17613e-16
-9.23515e-16
0
0
-3.63491e-16
3.82374e-16
4.02121e-16
4.22788e-16
1.34776e-15
-9.19602e-16
0
1.03978e-15
-5.42287e-16
1.13076e-15
-9.06312e-18
-1.86064e-17
-2.38237e-18
-3.89647e-17
1.47157e-17
-6.28859e-17
2.04988e-18
1.03252e-16
3.4189e-17
-2.1172e-16
1.73534e-16
2.7433e-16
-1.06254e-16
2.09624e-16
-1.33119e-16
-7.99646e-17
-8.74226e-17
0
4.26349e-16
-5.4305e-16
-1.19975e-16
0
2.9142e-16
-4.27354e-16
4.88645e-16
-8.22607e-16
-9.09256e-16
9.30412e-16
-4.02064e-16
-4.35238e-16
4.41501e-16
4.8654e-16
-2.31816e-16
-2.55637e-16
-2.80461e-16
0
-3.22981e-16
6.44696e-16
0
3.63488e-16
0
-8.04235e-16
4.36727e-16
-1.31915e-15
0
-4.90889e-16
5.31787e-22
-5.42061e-16
8.70296e-18
8.82953e-18
0
4.76459e-18
7.27839e-18
-4.70702e-17
7.75656e-17
0
0
0
4.01043e-17
0
0
-1.9782e-21
1.31571e-16
-7.27569e-17
7.9966e-17
0
3.94092e-16
1.3059e-16
1.39552e-16
1.48836e-16
-6.29627e-16
1.38063e-16
1.47606e-16
2.68871e-21
1.67782e-16
2.77233e-21
-1.89527e-16
2.01036e-16
8.70527e-16
-6.57621e-16
-2.38369e-16
1.01747e-15
-2.55663e-16
-2.91213e-16
8.7623e-16
6.34574e-16
-6.44727e-16
3.45425e-16
0
3.82373e-16
8.17741e-16
-4.09172e-16
0
9.49223e-16
-4.75742e-16
-1.56372e-15
3.25287e-15
-1.12229e-15
-5.98608e-16
0
-4.76435e-18
-7.2783e-18
-1.23276e-17
4.53417e-17
-1.83415e-16
2.27801e-16
-1.24024e-17
-1.89436e-16
0
0
-5.90427e-17
1.43829e-16
-2.78615e-16
-7.99602e-17
-3.62844e-16
7.61281e-16
-1.03146e-15
-1.39545e-16
4.65558e-16
-4.0146e-16
3.991e-16
-2.95205e-16
1.57505e-16
-1.6778e-16
9.09236e-16
-7.4087e-16
0
-1.08345e-15
1.35288e-15
-6.95822e-16
-2.51832e-16
-8.07959e-16
2.69927e-16
-2.95684e-16
0
-3.28123e-16
-6.90838e-16
0
-7.64733e-16
4.02117e-16
-1.70507e-15
-2.85732e-17
4.52463e-16
-4.90885e-16
0
1.67422e-17
-1.69185e-15
-5.98598e-16
0
-3.60138e-17
-3.91806e-17
-2.76706e-17
1.37584e-16
-2.04338e-16
4.55723e-16
7.77544e-17
-2.58631e-16
-1.9632e-16
1.98538e-16
-2.48181e-16
3.16832e-16
0
7.99617e-17
0
-3.94073e-16
7.56686e-17
5.43065e-16
-4.94453e-16
5.00751e-16
7.0562e-16
-4.27377e-16
0
-6.87713e-16
1.4279e-15
-7.40914e-16
0
2.12992e-16
2.25429e-16
-9.73112e-16
9.87529e-16
0
1.4238e-15
-1.16106e-15
0
3.28129e-16
-3.57621e-16
7.14666e-16
3.82372e-16
8.17728e-16
-4.09162e-16
0
4.6711e-16
-5.06448e-16
-3.18698e-17
1.60988e-15
1.15669e-15
-5.80975e-16
6.29124e-16
0
-1.45481e-17
0
-3.50591e-17
0
0
-6.83536e-17
-3.43135e-16
3.46969e-16
0
-3.66168e-16
5.26332e-16
-2.78574e-16
1.72761e-16
-6.99443e-16
7.61194e-16
-6.05058e-16
0
0
-5.30269e-16
5.37111e-16
0
0
0
-3.56859e-16
0
4.02028e-16
4.25949e-16
-4.50823e-16
-4.76699e-16
-5.0363e-16
-5.52493e-16
1.10072e-15
5.91334e-16
6.23087e-16
0
-1.3938e-15
7.1461e-16
7.64702e-16
0
-8.4553e-16
8.88815e-16
0
9.81743e-16
0
-1.0841e-15
5.69612e-16
1.19718e-15
-6.29119e-16
-4.76144e-18
1.45483e-17
1.18727e-16
-1.19982e-16
0
0
3.05313e-21
-8.0178e-17
3.92541e-16
4.65704e-17
-7.08757e-16
5.01995e-16
-1.45478e-16
8.25255e-16
-6.73325e-16
-1.90247e-16
2.06231e-16
0
-2.39914e-16
-2.57675e-16
0
-2.95177e-16
3.31137e-16
-6.54789e-16
3.56864e-16
-3.79013e-16
-4.02034e-16
1.85374e-17
-4.32138e-16
4.76706e-16
4.69239e-21
-4.76793e-21
1.14327e-15
-2.34368e-15
-5.02778e-21
-6.56223e-16
6.90817e-16
7.26943e-16
-5.45938e-21
-8.04203e-16
1.70505e-15
2.85688e-17
-1.85375e-15
-5.87535e-21
-1.04782e-15
1.06778e-15
1.13922e-15
1.81344e-17
-2.49814e-15
4.76144e-18
0
1.18679e-16
7.58909e-17
-3.66689e-16
2.06409e-16
1.36695e-16
8.0178e-17
-9.23851e-17
-3.38481e-16
3.30499e-16
-1.3153e-16
1.45478e-16
0
3.6279e-16
-3.67179e-16
2.06218e-16
0
2.39914e-16
-5.30251e-16
8.13179e-16
2.95176e-16
9.61061e-16
3.68383e-16
-6.96973e-16
1.15453e-15
3.56805e-17
1.81853e-17
4.69879e-16
-9.34136e-16
1.53109e-15
-1.04292e-15
5.82355e-16
2.1707e-17
-1.26903e-15
1.94555e-15
-6.90801e-16
-1.11971e-20
-1.14577e-20
8.04203e-16
-8.45525e-16
1.44443e-17
1.89797e-15
-1.94832e-15
0
1.08411e-15
-2.27842e-15
0
1.12562e-20
0
-1.45521e-17
1.18663e-16
7.59005e-17
-3.66661e-16
1.49487e-16
-6.83431e-17
-4.23296e-16
8.31799e-16
-5.01915e-16
0
1.3153e-16
0
6.65291e-16
5.23192e-17
-5.44133e-16
-2.06218e-16
-9.19439e-16
9.31005e-16
-2.64482e-20
1.52874e-17
3.11678e-17
-9.2908e-16
3.52098e-16
-1.05385e-15
0
4.19997e-16
-1.25965e-15
4.50816e-16
0
0
-1.06336e-15
5.60878e-16
-1.79613e-15
6.00697e-16
-1.99227e-15
6.42569e-16
-1.50374e-15
7.39219e-16
8.04227e-16
8.45525e-16
-8.88846e-16
-9.3417e-16
-9.81774e-16
2.07949e-15
-1.08447e-15
2.26143e-15
2.41252e-15
3.72456e-17
0
1.45522e-17
-2.46565e-17
-3.50659e-17
-2.04349e-16
1.42781e-17
2.51913e-16
8.01909e-17
0
-5.48712e-16
-4.76444e-17
5.02121e-16
6.07217e-16
-1.27989e-15
1.2244e-15
-7.34579e-16
0
0
-4.9447e-16
2.28095e-16
1.3809e-15
-5.75001e-16
-2.11485e-20
0
3.56882e-16
-7.7564e-16
2.01071e-15
-8.33831e-16
0
-4.76749e-16
1.02759e-15
-1.59564e-15
2.24422e-15
-1.16109e-15
1.26916e-15
-6.33216e-16
0
7.2697e-16
-7.64762e-16
-2.43972e-15
-9.0077e-16
1.74951e-15
-9.34239e-16
9.8178e-16
-1.0317e-15
-1.08413e-15
-1.1567e-15
1.19775e-15
1.83404e-17
0
1.45605e-17
-5.96234e-21
0
4.58347e-17
0
6.83875e-17
8.02165e-17
0
5.4865e-16
-3.30577e-16
-5.50813e-16
5.57255e-16
6.65429e-16
-1.04941e-15
9.24811e-16
0
-6.96761e-16
9.31153e-16
-8.02939e-16
1.35049e-15
0
-1.61091e-17
1.34253e-15
-1.42787e-15
1.11997e-15
0
4.26009e-16
0
-1.99355e-20
-5.23852e-16
1.043e-15
-5.82368e-16
1.16104e-15
-6.45951e-16
6.33125e-16
1.40607e-15
7.76845e-16
8.16277e-16
-7.77855e-16
8.45578e-16
1.80659e-15
2.92994e-17
0
0
0
0
1.21532e-15
3.72394e-17
0
-1.45608e-17
2.46626e-17
1.96058e-16
-2.08529e-16
5.6938e-17
5.61189e-21
-8.02184e-17
-3.92765e-16
3.97203e-16
-1.18103e-16
-1.31594e-16
-6.07341e-16
1.4401e-15
-1.57437e-15
5.4441e-16
-8.52902e-16
6.40668e-16
2.39981e-16
-2.57734e-16
-5.52301e-16
0
-3.15041e-16
0
7.30935e-16
-1.1201e-15
-4.20144e-16
4.07895e-16
-9.20905e-16
4.37896e-16
2.01533e-15
-2.12752e-15
5.39976e-16
0
-6.23167e-16
1.31261e-15
-1.40622e-15
7.02439e-16
1.55569e-15
-1.58227e-15
0
8.88906e-16
-9.34267e-16
0
-2.07969e-15
1.06788e-15
1.74384e-17
1.23302e-15
-3.77537e-15
4.76679e-18
0
1.18751e-16
-3.15956e-16
1.62584e-16
-5.69364e-17
-6.83927e-17
0
9.24432e-17
1.05066e-16
4.96379e-16
1.80344e-16
-1.16453e-15
-2.11039e-16
-5.23204e-17
9.24886e-16
0
0
-2.39974e-16
0
5.52298e-16
-9.1709e-16
2.52078e-15
-1.99747e-15
1.07101e-15
3.47023e-17
-3.66414e-16
-4.07804e-16
-9.20814e-16
-3.88744e-17
-1.98584e-17
-1.08428e-15
-4.25181e-17
1.75249e-15
0
-6.56293e-16
-6.90888e-16
0
0
1.63547e-15
-1.66391e-15
1.80665e-15
9.93479e-16
-3.92794e-15
-6.37351e-17
1.03471e-15
3.41819e-15
-2.37678e-15
-1.88543e-17
-4.76695e-18
0
0
0
0
0
0
-3.43411e-16
2.54802e-16
-1.0507e-16
-4.96529e-16
-4.87561e-17
5.5747e-16
0
0
5.98029e-16
-1.65096e-15
8.63534e-16
9.8912e-16
-1.00172e-15
-1.41151e-15
8.54938e-16
0
0
-3.74017e-16
7.41039e-16
0
-4.26036e-16
9.2093e-16
-1.90762e-15
1.49139e-15
1.08441e-15
-1.10096e-15
-5.91432e-16
0
0
6.90911e-16