/*--------------------------------*- C++ -*----------------------------------*\
  =========                 |
  \\      /  F ield         | OpenFOAM: The Open Source CFD Toolbox
   \\    /   O peration     | Website:  https://openfoam.org
    \\  /    A nd           | Version:  6
     \\/     M anipulation  |
\*---------------------------------------------------------------------------*/
FoamFile
{
    version     2.0;
    format      ascii;
    class       volScalarField;
    location    "90";
    object      T;
}
// * * * * * * * * * * * * * * * * * * * * * * * * * * * * * * * * * * * * * //

dimensions      [0 0 0 1 0 0 0];

internalField   nonuniform List<scalar> 
13524
(
0.0366468
0.110896
0.18596
0.261838
0.33854
0.416075
0.49446
0.57371
0.653843
0.734878
0.816836
0.899737
0.983604
1.06846
1.15432
1.24122
1.32918
1.41823
1.50839
1.59969
1.69216
1.78583
1.88074
1.97691
2.07438
2.17319
2.27337
2.37496
2.478
2.58253
2.68861
2.79626
2.90555
3.01652
3.12923
3.24372
3.36006
3.47831
3.59853
3.72079
3.84516
3.97171
4.10051
4.23167
4.36525
4.50136
4.6401
4.78159
4.92598
0.0368014
0.111209
0.186357
0.262282
0.339009
0.41656
0.494954
0.57421
0.654347
0.735385
0.817345
0.900247
0.984114
1.06897
1.15483
1.24173
1.32969
1.41874
1.5089
1.6002
1.69267
1.78634
1.88125
1.97742
2.07489
2.1737
2.27388
2.37547
2.47851
2.58304
2.68912
2.79678
2.90606
3.01704
3.12974
3.24424
3.36058
3.47883
3.59905
3.7213
3.84567
3.97222
4.10102
4.23217
4.36575
4.50185
4.64058
4.78202
4.92625
0.0366981
0.111035
0.186166
0.262094
0.33883
0.41639
0.494791
0.574053
0.654194
0.735236
0.817198
0.900102
0.98397
1.06882
1.15469
1.24159
1.32955
1.4186
1.50876
1.60006
1.69253
1.7862
1.88111
1.97728
2.07475
2.17356
2.27374
2.37533
2.47837
2.5829
2.68898
2.79663
2.90592
3.01689
3.1296
3.2441
3.36044
3.47869
3.59891
3.72116
3.84553
3.97207
4.10088
4.23203
4.3656
4.50169
4.6404
4.78183
4.92609
0.0368231
0.111273
0.186458
0.262413
0.339165
0.416735
0.495143
0.574409
0.654554
0.735598
0.817562
0.900468
0.984337
1.06919
1.15506
1.24196
1.32992
1.41897
1.50913
1.60043
1.6929
1.78657
1.88148
1.97765
2.07512
2.17393
2.27411
2.3757
2.47874
2.58327
2.68935
2.797
2.90629
3.01726
3.12997
3.24446
3.36081
3.47905
3.59927
3.72153
3.8459
3.97244
4.10124
4.23239
4.36596
4.50205
4.64074
4.78213
4.9263
0.0367061
0.111058
0.186203
0.262142
0.338888
0.416456
0.494864
0.574131
0.654276
0.735321
0.817285
0.90019
0.98406
1.06892
1.15478
1.24168
1.32964
1.41869
1.50885
1.60015
1.69262
1.7863
1.8812
1.97737
2.07484
2.17365
2.27383
2.37542
2.47846
2.583
2.68907
2.79673
2.90602
3.01699
3.12969
3.24419
3.36053
3.47878
3.599
3.72126
3.84562
3.97216
4.10097
4.23211
4.36568
4.50177
4.64046
4.78187
4.92611
0.0368153
0.111253
0.186428
0.262377
0.339124
0.41669
0.495096
0.57436
0.654504
0.735548
0.817511
0.900416
0.984285
1.06914
1.15501
1.24191
1.32987
1.41891
1.50907
1.60038
1.69285
1.78652
1.88143
1.9776
2.07507
2.17388
2.27406
2.37565
2.47869
2.58322
2.6893
2.79695
2.90624
3.01721
3.12992
3.24441
3.36076
3.479
3.59922
3.72148
3.84585
3.97239
4.10119
4.23234
4.36591
4.502
4.6407
4.7821
4.92628
0.0366873
0.111003
0.186118
0.262034
0.338762
0.416316
0.494714
0.573974
0.654114
0.735154
0.817116
0.90002
0.983888
1.06874
1.15461
1.24151
1.32947
1.41852
1.50868
1.59998
1.69245
1.78612
1.88103
1.9772
2.07467
2.17348
2.27366
2.37525
2.47829
2.58282
2.6889
2.79655
2.90584
3.01682
3.12952
3.24402
3.36036
3.47861
3.59883
3.72108
3.84545
3.97199
4.1008
4.23195
4.36552
4.50162
4.64033
4.78177
4.92607
0.0367579
0.111121
0.186246
0.262159
0.33888
0.416427
0.494819
0.574074
0.65421
0.735248
0.817208
0.900111
0.983978
1.06883
1.1547
1.2416
1.32956
1.4186
1.50876
1.60006
1.69254
1.78621
1.88111
1.97729
2.07476
2.17356
2.27374
2.37533
2.47837
2.58291
2.68898
2.79664
2.90593
3.0169
3.12961
3.2441
3.36044
3.47869
3.59891
3.72117
3.84553
3.97208
4.10089
4.23204
4.36562
4.50172
4.64045
4.7819
4.92618
0.0366898
0.110983
0.186071
0.261962
0.338671
0.416211
0.494598
0.573849
0.653984
0.735021
0.81698
0.899881
0.983748
1.0686
1.15447
1.24137
1.32933
1.41837
1.50853
1.59983
1.6923
1.78598
1.88088
1.97705
2.07452
2.17333
2.27351
2.3751
2.47814
2.58268
2.68875
2.79641
2.9057
3.01667
3.12937
3.24387
3.36021
3.47846
3.59868
3.72094
3.8453
3.97185
4.10066
4.23181
4.36539
4.5015
4.64024
4.78171
4.92606
0.0366649
0.110941
0.186024
0.261916
0.338626
0.416168
0.494556
0.573809
0.653944
0.734982
0.816941
0.899843
0.98371
1.06856
1.15443
1.24133
1.32929
1.41833
1.50849
1.59979
1.69227
1.78594
1.88084
1.97701
2.07448
2.17329
2.27347
2.37506
2.4781
2.58264
2.68871
2.79637
2.90566
3.01663
3.12934
3.24383
3.36017
3.47842
3.59864
3.7209
3.84526
3.97181
4.10062
4.23177
4.36535
4.50146
4.64019
4.78167
4.92602
0.0367971
0.111205
0.186357
0.262286
0.339018
0.416573
0.49497
0.574228
0.654367
0.735407
0.817367
0.900271
0.984138
1.06899
1.15486
1.24176
1.32972
1.41876
1.50892
1.60022
1.69269
1.78637
1.88127
1.97744
2.07491
2.17372
2.2739
2.37549
2.47853
2.58307
2.68914
2.7968
2.90609
3.01706
3.12977
3.24426
3.3606
3.47885
3.59907
3.72133
3.84569
3.97224
4.10105
4.2322
4.36577
4.50187
4.64059
4.78202
4.92625
0.036704
0.111045
0.186178
0.262107
0.338845
0.416406
0.494808
0.574071
0.654214
0.735256
0.817219
0.900123
0.983992
1.06885
1.15471
1.24161
1.32957
1.41862
1.50878
1.60008
1.69255
1.78622
1.88113
1.9773
2.07477
2.17357
2.27375
2.37534
2.47839
2.58292
2.689
2.79665
2.90594
3.01691
3.12962
3.24411
3.36046
3.4787
3.59892
3.72118
3.84555
3.97209
4.1009
4.23205
4.36562
4.50171
4.64042
4.78184
4.9261
0.0368076
0.111241
0.186418
0.262369
0.339118
0.416687
0.495095
0.574361
0.654505
0.735549
0.817513
0.900419
0.984288
1.06914
1.15501
1.24191
1.32987
1.41891
1.50907
1.60037
1.69285
1.78652
1.88142
1.97759
2.07506
2.17387
2.27405
2.37564
2.47868
2.58322
2.68929
2.79695
2.90624
3.01721
3.12992
3.24441
3.36075
3.479
3.59922
3.72148
3.84584
3.97239
4.1012
4.23234
4.36591
4.502
4.64069
4.78209
4.92627
0.0367112
0.111064
0.186207
0.262144
0.338889
0.416456
0.494863
0.57413
0.654275
0.735319
0.817283
0.900188
0.984057
1.06891
1.15478
1.24168
1.32964
1.41868
1.50884
1.60014
1.69261
1.78629
1.88119
1.97736
2.07483
2.17364
2.27382
2.37541
2.47845
2.58299
2.68906
2.79672
2.90601
3.01698
3.12968
3.24418
3.36052
3.47877
3.59899
3.72125
3.84561
3.97216
4.10096
4.23211
4.36568
4.50177
4.64046
4.78187
4.92611
0.0367989
0.111222
0.186392
0.262338
0.339084
0.41665
0.495055
0.57432
0.654463
0.735506
0.817469
0.900373
0.984241
1.0691
1.15496
1.24186
1.32982
1.41886
1.50902
1.60032
1.69279
1.78647
1.88137
1.97754
2.07501
2.17382
2.274
2.37559
2.47863
2.58316
2.68924
2.7969
2.90619
3.01716
3.12986
3.24436
3.3607
3.47895
3.59917
3.72143
3.8458
3.97234
4.10115
4.2323
4.36587
4.50196
4.64066
4.78206
4.92625
0.0367053
0.111042
0.18617
0.262094
0.338827
0.416384
0.494783
0.574042
0.654182
0.735222
0.817182
0.900085
0.983951
1.0688
1.15467
1.24157
1.32953
1.41857
1.50873
1.60003
1.6925
1.78617
1.88108
1.97725
2.07472
2.17352
2.2737
2.37529
2.47833
2.58287
2.68894
2.7966
2.90589
3.01686
3.12957
3.24406
3.36041
3.47866
3.59888
3.72114
3.8455
3.97205
4.10086
4.23201
4.36559
4.50169
4.6404
4.78183
4.9261
0.036776
0.111162
0.186301
0.262223
0.338948
0.416498
0.494891
0.574145
0.65428
0.735316
0.817274
0.900174
0.984039
1.06889
1.15475
1.24165
1.32961
1.41865
1.50881
1.60011
1.69258
1.78625
1.88116
1.97733
2.0748
2.1736
2.27378
2.37537
2.47841
2.58295
2.68902
2.79668
2.90597
3.01694
3.12965
3.24415
3.36049
3.47874
3.59896
3.72122
3.84559
3.97214
4.10095
4.2321
4.36569
4.50179
4.64052
4.78196
4.92621
0.0366808
0.110971
0.18606
0.261952
0.33866
0.416198
0.494583
0.573831
0.653961
0.734994
0.816949
0.899848
0.983711
1.06856
1.15442
1.24132
1.32928
1.41832
1.50848
1.59978
1.69225
1.78592
1.88082
1.97699
2.07446
2.17327
2.27345
2.37504
2.47808
2.58262
2.68869
2.79635
2.90564
3.01661
3.12932
3.24381
3.36016
3.47841
3.59863
3.72089
3.84526
3.97181
4.10063
4.23178
4.36537
4.50149
4.64023
4.7817
4.92605
0.0367009
0.111003
0.186092
0.261981
0.338686
0.41622
0.494601
0.573847
0.653975
0.735006
0.81696
0.899856
0.983718
1.06857
1.15443
1.24133
1.32928
1.41832
1.50848
1.59978
1.69225
1.78592
1.88083
1.977
2.07447
2.17327
2.27345
2.37504
2.47808
2.58262
2.68869
2.79635
2.90564
3.01661
3.12932
3.24382
3.36016
3.47841
3.59863
3.7209
3.84527
3.97182
4.10063
4.23179
4.36539
4.5015
4.64025
4.78173
4.92608
0.0367347
0.111072
0.186179
0.262077
0.338786
0.416323
0.494705
0.573951
0.65408
0.73511
0.817064
0.899961
0.983822
1.06867
1.15453
1.24143
1.32938
1.41843
1.50858
1.59988
1.69235
1.78602
1.88093
1.9771
2.07457
2.17337
2.27355
2.37514
2.47818
2.58272
2.68879
2.79645
2.90574
3.01671
3.12942
3.24392
3.36026
3.47851
3.59874
3.721
3.84537
3.97192
4.10074
4.2319
4.36549
4.50161
4.64035
4.78182
4.92614
0.0366948
0.111004
0.186106
0.262006
0.338719
0.41626
0.494645
0.573894
0.654024
0.735056
0.81701
0.899908
0.98377
1.06862
1.15448
1.24138
1.32933
1.41838
1.50853
1.59983
1.6923
1.78597
1.88088
1.97705
2.07452
2.17332
2.2735
2.37509
2.47813
2.58267
2.68874
2.7964
2.90569
3.01666
3.12937
3.24387
3.36021
3.47846
3.59869
3.72095
3.84532
3.97187
4.10069
4.23184
4.36543
4.50155
4.64029
4.78175
4.92607
0.0367682
0.111149
0.186286
0.262207
0.338932
0.416481
0.494872
0.574124
0.654258
0.735292
0.817248
0.900146
0.984009
1.06886
1.15472
1.24162
1.32957
1.41862
1.50877
1.60007
1.69254
1.78621
1.88112
1.97729
2.07476
2.17356
2.27374
2.37533
2.47837
2.58291
2.68898
2.79664
2.90593
3.0169
3.12961
3.24411
3.36045
3.4787
3.59893
3.72119
3.84556
3.97211
4.10092
4.23208
4.36567
4.50177
4.6405
4.78194
4.9262
0.0367143
0.111054
0.186179
0.262098
0.338825
0.416377
0.494772
0.574028
0.654164
0.7352
0.817158
0.900058
0.983922
1.06877
1.15464
1.24153
1.32949
1.41853
1.50869
1.59999
1.69246
1.78613
1.88103
1.9772
2.07467
2.17348
2.27366
2.37525
2.47829
2.58283
2.6889
2.79656
2.90585
3.01682
3.12953
3.24402
3.36037
3.47862
3.59884
3.7211
3.84547
3.97202
4.10083
4.23199
4.36557
4.50168
4.6404
4.78184
4.92611
0.0367672
0.111154
0.186301
0.262231
0.338965
0.416521
0.494919
0.574178
0.654316
0.735354
0.817313
0.900214
0.984079
1.06893
1.15479
1.24169
1.32965
1.41869
1.50885
1.60015
1.69262
1.78629
1.88119
1.97736
2.07483
2.17364
2.27382
2.37541
2.47845
2.58299
2.68906
2.79672
2.90601
3.01698
3.12969
3.24418
3.36053
3.47878
3.599
3.72126
3.84563
3.97218
4.10099
4.23214
4.36572
4.50182
4.64054
4.78196
4.9262
0.0367215
0.11107
0.186202
0.262126
0.338859
0.416416
0.494815
0.574074
0.654214
0.735253
0.817213
0.900115
0.983981
1.06883
1.1547
1.24159
1.32955
1.4186
1.50875
1.60005
1.69252
1.78619
1.8811
1.97727
2.07474
2.17354
2.27372
2.37531
2.47835
2.58289
2.68896
2.79662
2.90591
3.01688
3.12959
3.24409
3.36043
3.47868
3.5989
3.72116
3.84553
3.97208
4.10089
4.23204
4.36562
4.50172
4.64043
4.78186
4.92612
0.0367598
0.111141
0.186285
0.262215
0.33895
0.416508
0.494908
0.574168
0.654308
0.735348
0.817308
0.900211
0.984077
1.06893
1.15479
1.24169
1.32965
1.41869
1.50885
1.60015
1.69262
1.78629
1.8812
1.97737
2.07484
2.17364
2.27382
2.37541
2.47845
2.58299
2.68906
2.79672
2.90601
3.01698
3.12969
3.24418
3.36053
3.47878
3.599
3.72126
3.84563
3.97218
4.10099
4.23214
4.36571
4.50181
4.64052
4.78195
4.92619
0.0367253
0.111076
0.186207
0.262131
0.338863
0.41642
0.494819
0.574078
0.654218
0.735258
0.817218
0.90012
0.983987
1.06884
1.1547
1.2416
1.32956
1.4186
1.50876
1.60006
1.69253
1.7862
1.88111
1.97728
2.07475
2.17355
2.27373
2.37532
2.47836
2.5829
2.68897
2.79663
2.90592
3.01689
3.1296
3.2441
3.36044
3.47869
3.59891
3.72117
3.84554
3.97209
4.1009
4.23205
4.36562
4.50172
4.64043
4.78187
4.92613
0.0367501
0.11112
0.186258
0.262184
0.338916
0.416472
0.49487
0.574129
0.654268
0.735307
0.817267
0.90017
0.984036
1.06889
1.15475
1.24165
1.32961
1.41865
1.50881
1.60011
1.69258
1.78625
1.88116
1.97733
2.0748
2.1736
2.27378
2.37537
2.47841
2.58295
2.68902
2.79668
2.90597
3.01694
3.12965
3.24414
3.36049
3.47874
3.59896
3.72122
3.84559
3.97214
4.10095
4.2321
4.36568
4.50177
4.64049
4.78192
4.92617
0.0367286
0.111079
0.186207
0.262128
0.338857
0.41641
0.494807
0.574065
0.654203
0.735241
0.8172
0.900102
0.983968
1.06882
1.15468
1.24158
1.32954
1.41858
1.50874
1.60004
1.69251
1.78618
1.88109
1.97726
2.07473
2.17353
2.27371
2.3753
2.47834
2.58288
2.68895
2.79661
2.9059
3.01687
3.12958
3.24407
3.36042
3.47867
3.59889
3.72115
3.84552
3.97207
4.10088
4.23203
4.36561
4.50171
4.64043
4.78186
4.92613
0.0367404
0.111099
0.18623
0.26215
0.338877
0.41643
0.494825
0.574081
0.654218
0.735255
0.817214
0.900115
0.98398
1.06883
1.15469
1.24159
1.32955
1.41859
1.50875
1.60005
1.69252
1.78619
1.8811
1.97727
2.07474
2.17354
2.27372
2.37531
2.47835
2.58289
2.68896
2.79662
2.90591
3.01688
3.12959
3.24409
3.36043
3.47868
3.5989
3.72116
3.84553
3.97208
4.10089
4.23204
4.36563
4.50173
4.64045
4.78189
4.92615
0.036732
0.111082
0.186208
0.262125
0.33885
0.4164
0.494794
0.574048
0.654184
0.73522
0.817178
0.900078
0.983942
1.06879
1.15466
1.24155
1.32951
1.41855
1.50871
1.60001
1.69248
1.78615
1.88106
1.97723
2.0747
2.1735
2.27368
2.37527
2.47831
2.58285
2.68892
2.79658
2.90587
3.01684
3.12955
3.24405
3.36039
3.47864
3.59886
3.72112
3.84549
3.97204
4.10086
4.23201
4.36559
4.5017
4.64042
4.78186
4.92614
0.036731
0.111079
0.186202
0.262117
0.33884
0.416389
0.494781
0.574034
0.654169
0.735204
0.817161
0.90006
0.983924
1.06877
1.15464
1.24153
1.32949
1.41853
1.50869
1.59999
1.69246
1.78613
1.88103
1.9772
2.07467
2.17348
2.27366
2.37525
2.47829
2.58283
2.6889
2.79656
2.90585
3.01682
3.12953
3.24402
3.36037
3.47862
3.59884
3.7211
3.84547
3.97202
4.10084
4.23199
4.36558
4.50168
4.64041
4.78186
4.92614
0.0367355
0.111086
0.186208
0.262122
0.338843
0.41639
0.49478
0.574033
0.654166
0.735201
0.817157
0.900056
0.983919
1.06877
1.15463
1.24153
1.32948
1.41853
1.50868
1.59998
1.69245
1.78612
1.88103
1.9772
2.07467
2.17347
2.27365
2.37524
2.47828
2.58282
2.68889
2.79655
2.90584
3.01681
3.12952
3.24402
3.36036
3.47861
3.59884
3.7211
3.84547
3.97202
4.10083
4.23199
4.36557
4.50168
4.64041
4.78186
4.92614
0.0367199
0.111055
0.18617
0.262079
0.338798
0.416344
0.494733
0.573985
0.654117
0.735151
0.817107
0.900005
0.983868
1.06872
1.15458
1.24148
1.32943
1.41848
1.50863
1.59993
1.6924
1.78607
1.88098
1.97714
2.07461
2.17342
2.2736
2.37519
2.47823
2.58277
2.68884
2.7965
2.90579
3.01676
3.12947
3.24396
3.36031
3.47856
3.59878
3.72105
3.84542
3.97197
4.10078
4.23194
4.36553
4.50164
4.64037
4.78182
4.92612
0.0367372
0.111087
0.186207
0.262119
0.338839
0.416384
0.494773
0.574025
0.654157
0.735191
0.817146
0.900045
0.983907
1.06876
1.15462
1.24151
1.32947
1.41851
1.50867
1.59997
1.69244
1.78611
1.88101
1.97718
2.07465
2.17346
2.27364
2.37523
2.47827
2.5828
2.68888
2.79654
2.90583
3.0168
3.12951
3.244
3.36035
3.4786
3.59882
3.72108
3.84545
3.97201
4.10082
4.23198
4.36557
4.50168
4.64041
4.78186
4.92614
0.0367197
0.111055
0.18617
0.262079
0.338799
0.416344
0.494733
0.573985
0.654117
0.735152
0.817107
0.900006
0.983868
1.06872
1.15458
1.24148
1.32943
1.41848
1.50863
1.59993
1.6924
1.78607
1.88098
1.97714
2.07461
2.17342
2.2736
2.37519
2.47823
2.58277
2.68884
2.7965
2.90579
3.01676
3.12947
3.24396
3.36031
3.47856
3.59878
3.72105
3.84542
3.97197
4.10078
4.23194
4.36553
4.50164
4.64037
4.78182
4.92612
0.0367354
0.111085
0.186208
0.262122
0.338843
0.41639
0.494781
0.574033
0.654167
0.735201
0.817157
0.900056
0.983919
1.06877
1.15463
1.24153
1.32948
1.41853
1.50868
1.59998
1.69245
1.78612
1.88103
1.9772
2.07467
2.17347
2.27365
2.37524
2.47828
2.58282
2.68889
2.79655
2.90584
3.01681
3.12952
3.24402
3.36036
3.47861
3.59884
3.7211
3.84547
3.97202
4.10083
4.23199
4.36557
4.50168
4.64041
4.78186
4.92614
0.0367312
0.111079
0.186203
0.262118
0.338841
0.416389
0.494781
0.574035
0.654169
0.735205
0.817162
0.900061
0.983925
1.06878
1.15464
1.24153
1.32949
1.41853
1.50869
1.59999
1.69246
1.78613
1.88104
1.9772
2.07467
2.17348
2.27366
2.37525
2.47829
2.58283
2.6889
2.79656
2.90585
3.01682
3.12953
3.24402
3.36037
3.47862
3.59884
3.7211
3.84547
3.97202
4.10084
4.23199
4.36558
4.50168
4.64041
4.78186
4.92614
0.0367322
0.111082
0.186208
0.262125
0.33885
0.4164
0.494794
0.574049
0.654185
0.735221
0.817179
0.900079
0.983943
1.06879
1.15466
1.24155
1.32951
1.41855
1.50871
1.60001
1.69248
1.78615
1.88106
1.97723
2.0747
2.1735
2.27368
2.37527
2.47831
2.58285
2.68892
2.79658
2.90587
3.01684
3.12955
3.24405
3.36039
3.47864
3.59886
3.72112
3.84549
3.97204
4.10086
4.23201
4.36559
4.5017
4.64042
4.78186
4.92614
0.0367404
0.111099
0.18623
0.26215
0.338877
0.41643
0.494825
0.574081
0.654218
0.735256
0.817214
0.900115
0.98398
1.06883
1.15469
1.24159
1.32955
1.41859
1.50875
1.60005
1.69252
1.78619
1.8811
1.97727
2.07474
2.17354
2.27372
2.37531
2.47835
2.58289
2.68896
2.79662
2.90591
3.01688
3.12959
3.24409
3.36043
3.47868
3.5989
3.72116
3.84553
3.97208
4.10089
4.23204
4.36563
4.50173
4.64045
4.78189
4.92615
0.0367284
0.111079
0.186207
0.262128
0.338857
0.41641
0.494807
0.574064
0.654202
0.735241
0.8172
0.900102
0.983967
1.06882
1.15468
1.24158
1.32954
1.41858
1.50874
1.60004
1.69251
1.78618
1.88109
1.97726
2.07473
2.17353
2.27371
2.3753
2.47834
2.58288
2.68895
2.79661
2.9059
3.01687
3.12958
3.24407
3.36042
3.47867
3.59889
3.72115
3.84552
3.97207
4.10088
4.23203
4.36561
4.50171
4.64043
4.78186
4.92613
0.0367501
0.11112
0.186258
0.262184
0.338916
0.416472
0.49487
0.574129
0.654268
0.735307
0.817267
0.900169
0.984035
1.06889
1.15475
1.24165
1.32961
1.41865
1.50881
1.60011
1.69258
1.78625
1.88115
1.97732
2.07479
2.1736
2.27378
2.37537
2.47841
2.58295
2.68902
2.79668
2.90597
3.01694
3.12965
3.24414
3.36049
3.47874
3.59896
3.72122
3.84559
3.97214
4.10095
4.2321
4.36568
4.50177
4.64049
4.78192
4.92617
0.0367255
0.111076
0.186207
0.262131
0.338863
0.41642
0.494818
0.574078
0.654218
0.735257
0.817218
0.90012
0.983986
1.06884
1.1547
1.2416
1.32956
1.4186
1.50876
1.60006
1.69253
1.7862
1.88111
1.97728
2.07475
2.17355
2.27373
2.37532
2.47836
2.5829
2.68897
2.79663
2.90592
3.01689
3.1296
3.2441
3.36044
3.47869
3.59891
3.72117
3.84554
3.97209
4.1009
4.23205
4.36562
4.50172
4.64043
4.78187
4.92613
0.0367598
0.111141
0.186285
0.262215
0.33895
0.416508
0.494908
0.574168
0.654308
0.735347
0.817308
0.90021
0.984077
1.06893
1.15479
1.24169
1.32965
1.41869
1.50885
1.60015
1.69262
1.78629
1.8812
1.97737
2.07484
2.17364
2.27382
2.37541
2.47845
2.58299
2.68906
2.79672
2.90601
3.01698
3.12969
3.24419
3.36053
3.47878
3.599
3.72126
3.84563
3.97218
4.10099
4.23214
4.36571
4.50181
4.64052
4.78195
4.92619
0.0367214
0.11107
0.186202
0.262126
0.338859
0.416416
0.494815
0.574074
0.654214
0.735253
0.817213
0.900115
0.983981
1.06883
1.1547
1.24159
1.32955
1.4186
1.50875
1.60005
1.69252
1.78619
1.8811
1.97727
2.07474
2.17354
2.27372
2.37531
2.47836
2.58289
2.68897
2.79662
2.90591
3.01689
3.12959
3.24409
3.36043
3.47868
3.59891
3.72117
3.84553
3.97208
4.10089
4.23204
4.36562
4.50172
4.64043
4.78186
4.92612
0.0367672
0.111154
0.186301
0.262231
0.338965
0.416522
0.49492
0.574178
0.654316
0.735355
0.817314
0.900215
0.98408
1.06893
1.15479
1.24169
1.32965
1.41869
1.50885
1.60015
1.69262
1.78629
1.8812
1.97737
2.07484
2.17364
2.27382
2.37541
2.47845
2.58299
2.68906
2.79672
2.90601
3.01698
3.12969
3.24418
3.36053
3.47878
3.599
3.72126
3.84563
3.97218
4.10099
4.23214
4.36572
4.50182
4.64054
4.78196
4.9262
0.0367142
0.111054
0.186179
0.262098
0.338826
0.416378
0.494772
0.574028
0.654164
0.735201
0.817159
0.900059
0.983923
1.06877
1.15464
1.24153
1.32949
1.41853
1.50869
1.59999
1.69246
1.78613
1.88104
1.9772
2.07467
2.17348
2.27366
2.37525
2.47829
2.58283
2.6889
2.79656
2.90585
3.01682
3.12953
3.24402
3.36037
3.47862
3.59884
3.7211
3.84547
3.97202
4.10084
4.23199
4.36557
4.50168
4.6404
4.78184
4.92611
0.0367684
0.111149
0.186287
0.262208
0.338932
0.416481
0.494872
0.574125
0.654258
0.735293
0.817249
0.900147
0.98401
1.06886
1.15472
1.24162
1.32958
1.41862
1.50878
1.60007
1.69254
1.78622
1.88112
1.97729
2.07476
2.17356
2.27374
2.37533
2.47838
2.58291
2.68898
2.79664
2.90593
3.01691
3.12961
3.24411
3.36045
3.4787
3.59893
3.72119
3.84556
3.97211
4.10092
4.23208
4.36567
4.50178
4.6405
4.78194
4.9262
0.036695
0.111005
0.186106
0.262006
0.338719
0.41626
0.494646
0.573894
0.654025
0.735057
0.817011
0.899909
0.983771
1.06862
1.15448
1.24138
1.32933
1.41838
1.50853
1.59983
1.6923
1.78597
1.88088
1.97705
2.07452
2.17332
2.2735
2.37509
2.47813
2.58267
2.68874
2.7964
2.90569
3.01666
3.12937
3.24387
3.36021
3.47846
3.59869
3.72095
3.84532
3.97187
4.10069
4.23184
4.36543
4.50155
4.64029
4.78175
4.92607
0.0367345
0.111071
0.186178
0.262077
0.338786
0.416323
0.494705
0.573951
0.65408
0.735111
0.817064
0.899961
0.983823
1.06867
1.15453
1.24143
1.32939
1.41843
1.50859
1.59988
1.69235
1.78603
1.88093
1.9771
2.07457
2.17337
2.27355
2.37514
2.47819
2.58272
2.68879
2.79645
2.90574
3.01672
3.12942
3.24392
3.36026
3.47851
3.59874
3.721
3.84537
3.97192
4.10074
4.2319
4.36549
4.50161
4.64035
4.78182
4.92614
0.0367008
0.111003
0.186092
0.261982
0.338686
0.41622
0.494601
0.573847
0.653976
0.735007
0.81696
0.899857
0.983719
1.06857
1.15443
1.24133
1.32928
1.41833
1.50848
1.59978
1.69225
1.78592
1.88083
1.977
2.07447
2.17327
2.27345
2.37504
2.47808
2.58262
2.68869
2.79635
2.90564
3.01661
3.12932
3.24382
3.36016
3.47841
3.59863
3.7209
3.84527
3.97182
4.10063
4.23179
4.36539
4.5015
4.64025
4.78173
4.92608
0.036681
0.110971
0.18606
0.261952
0.33866
0.416198
0.494583
0.573831
0.653962
0.734995
0.81695
0.899848
0.983711
1.06856
1.15442
1.24132
1.32928
1.41832
1.50848
1.59978
1.69225
1.78592
1.88082
1.97699
2.07446
2.17327
2.27345
2.37504
2.47808
2.58262
2.68869
2.79635
2.90564
3.01661
3.12932
3.24381
3.36016
3.47841
3.59863
3.72089
3.84526
3.97181
4.10063
4.23178
4.36537
4.50149
4.64023
4.7817
4.92605
0.0367761
0.111162
0.186301
0.262223
0.338948
0.416498
0.494891
0.574145
0.65428
0.735316
0.817274
0.900174
0.984039
1.06889
1.15475
1.24165
1.32961
1.41865
1.50881
1.60011
1.69258
1.78625
1.88116
1.97733
2.0748
2.1736
2.27378
2.37537
2.47841
2.58295
2.68902
2.79668
2.90597
3.01694
3.12965
3.24415
3.36049
3.47874
3.59896
3.72122
3.84559
3.97214
4.10095
4.2321
4.36569
4.50179
4.64052
4.78196
4.92621
0.0367053
0.111043
0.18617
0.262094
0.338826
0.416384
0.494783
0.574042
0.654182
0.735222
0.817182
0.900085
0.983951
1.0688
1.15467
1.24157
1.32953
1.41857
1.50873
1.60003
1.6925
1.78617
1.88108
1.97725
2.07472
2.17352
2.2737
2.37529
2.47833
2.58287
2.68894
2.7966
2.90589
3.01686
3.12957
3.24406
3.36041
3.47866
3.59888
3.72114
3.8455
3.97205
4.10086
4.23201
4.36559
4.50169
4.6404
4.78183
4.9261
0.0367989
0.111222
0.186392
0.262338
0.339084
0.41665
0.495056
0.57432
0.654463
0.735506
0.817469
0.900373
0.984241
1.0691
1.15496
1.24186
1.32982
1.41886
1.50902
1.60032
1.69279
1.78647
1.88137
1.97754
2.07501
2.17382
2.274
2.37559
2.47863
2.58317
2.68924
2.7969
2.90619
3.01716
3.12986
3.24436
3.3607
3.47895
3.59917
3.72143
3.8458
3.97234
4.10115
4.2323
4.36587
4.50196
4.64066
4.78206
4.92625
0.0367114
0.111064
0.186207
0.262145
0.338889
0.416457
0.494864
0.57413
0.654276
0.73532
0.817284
0.900189
0.984058
1.06891
1.15478
1.24168
1.32964
1.41868
1.50884
1.60014
1.69261
1.78629
1.88119
1.97736
2.07483
2.17364
2.27382
2.37541
2.47845
2.58299
2.68906
2.79672
2.90601
3.01698
3.12969
3.24418
3.36052
3.47877
3.59899
3.72125
3.84562
3.97216
4.10097
4.23211
4.36568
4.50177
4.64047
4.78187
4.92611
0.0368076
0.111241
0.186418
0.262369
0.339118
0.416687
0.495095
0.574361
0.654506
0.735551
0.817515
0.90042
0.984289
1.06914
1.15501
1.24191
1.32987
1.41892
1.50907
1.60038
1.69285
1.78652
1.88143
1.9776
2.07507
2.17387
2.27405
2.37564
2.47869
2.58322
2.68929
2.79695
2.90624
3.01721
3.12992
3.24441
3.36076
3.479
3.59922
3.72148
3.84585
3.97239
4.1012
4.23234
4.36591
4.502
4.64069
4.78209
4.92627
0.036704
0.111045
0.186179
0.262108
0.338845
0.416406
0.494809
0.574072
0.654215
0.735257
0.81722
0.900124
0.983993
1.06885
1.15471
1.24161
1.32957
1.41862
1.50878
1.60008
1.69255
1.78622
1.88113
1.9773
2.07477
2.17358
2.27376
2.37535
2.47839
2.58292
2.689
2.79666
2.90595
3.01692
3.12962
3.24412
3.36046
3.47871
3.59893
3.72119
3.84555
3.9721
4.1009
4.23205
4.36562
4.50171
4.64042
4.78184
4.9261
0.0367973
0.111206
0.186358
0.262287
0.339019
0.416574
0.494971
0.574229
0.654368
0.735408
0.817369
0.900272
0.98414
1.06899
1.15486
1.24176
1.32972
1.41876
1.50892
1.60023
1.6927
1.78637
1.88128
1.97745
2.07492
2.17372
2.2739
2.37549
2.47854
2.58307
2.68914
2.7968
2.90609
3.01706
3.12977
3.24426
3.3606
3.47885
3.59907
3.72133
3.8457
3.97224
4.10105
4.2322
4.36578
4.50187
4.64059
4.78202
4.92625
0.036665
0.110941
0.186024
0.261916
0.338626
0.416168
0.494557
0.57381
0.653945
0.734983
0.816942
0.899844
0.983711
1.06857
1.15443
1.24133
1.32929
1.41833
1.50849
1.5998
1.69227
1.78594
1.88085
1.97702
2.07449
2.17329
2.27347
2.37506
2.47811
2.58264
2.68872
2.79637
2.90566
3.01663
3.12934
3.24383
3.36017
3.47842
3.59864
3.7209
3.84527
3.97181
4.10062
4.23177
4.36535
4.50146
4.64019
4.78167
4.92602
0.0366898
0.110983
0.186071
0.261963
0.338671
0.416211
0.494599
0.57385
0.653985
0.735022
0.81698
0.899882
0.983749
1.0686
1.15447
1.24137
1.32933
1.41837
1.50853
1.59983
1.69231
1.78598
1.88088
1.97705
2.07453
2.17333
2.27351
2.3751
2.47814
2.58268
2.68875
2.79641
2.9057
3.01667
3.12938
3.24387
3.36021
3.47846
3.59868
3.72094
3.8453
3.97185
4.10066
4.23181
4.36539
4.5015
4.64024
4.78171
4.92606
0.0367579
0.111121
0.186246
0.262159
0.33888
0.416427
0.494819
0.574074
0.654211
0.735249
0.817209
0.900112
0.983979
1.06883
1.1547
1.2416
1.32956
1.4186
1.50876
1.60006
1.69254
1.78621
1.88111
1.97729
2.07476
2.17356
2.27374
2.37533
2.47838
2.58291
2.68898
2.79664
2.90593
3.0169
3.12961
3.2441
3.36044
3.47869
3.59891
3.72117
3.84553
3.97208
4.10089
4.23204
4.36562
4.50172
4.64045
4.7819
4.92618
0.0366872
0.111003
0.186118
0.262035
0.338762
0.416317
0.494715
0.573974
0.654115
0.735155
0.817117
0.900021
0.983889
1.06874
1.15461
1.24151
1.32947
1.41852
1.50868
1.59998
1.69245
1.78612
1.88103
1.9772
2.07467
2.17348
2.27366
2.37525
2.47829
2.58282
2.6889
2.79656
2.90584
3.01682
3.12952
3.24401
3.36036
3.4786
3.59882
3.72108
3.84545
3.97199
4.1008
4.23195
4.36552
4.50162
4.64033
4.78177
4.92607
0.0368155
0.111253
0.186429
0.262378
0.339124
0.416691
0.495096
0.574361
0.654505
0.735549
0.817512
0.900418
0.984287
1.06914
1.15501
1.24191
1.32987
1.41892
1.50907
1.60038
1.69285
1.78652
1.88143
1.9776
2.07507
2.17388
2.27406
2.37565
2.47869
2.58322
2.6893
2.79695
2.90624
3.01721
3.12992
3.24441
3.36076
3.479
3.59922
3.72148
3.84584
3.97239
4.10119
4.23234
4.36591
4.502
4.6407
4.7821
4.92628
0.0367061
0.111058
0.186202
0.262142
0.338888
0.416456
0.494864
0.574131
0.654276
0.735321
0.817286
0.900192
0.984061
1.06892
1.15478
1.24168
1.32964
1.41869
1.50885
1.60015
1.69262
1.7863
1.8812
1.97737
2.07485
2.17365
2.27383
2.37542
2.47846
2.583
2.68907
2.79673
2.90602
3.01699
3.1297
3.24419
3.36053
3.47878
3.599
3.72126
3.84562
3.97216
4.10097
4.23211
4.36568
4.50177
4.64046
4.78187
4.92611
0.036823
0.111273
0.186458
0.262413
0.339165
0.416735
0.495143
0.57441
0.654555
0.735599
0.817563
0.900469
0.984338
1.06919
1.15506
1.24196
1.32992
1.41897
1.50913
1.60043
1.6929
1.78657
1.88148
1.97765
2.07512
2.17393
2.27411
2.3757
2.47874
2.58328
2.68935
2.79701
2.9063
3.01727
3.12997
3.24447
3.36081
3.47906
3.59928
3.72153
3.8459
3.97244
4.10125
4.23239
4.36596
4.50205
4.64074
4.78213
4.9263
0.0366981
0.111035
0.186166
0.262094
0.33883
0.41639
0.494792
0.574054
0.654196
0.735237
0.8172
0.900104
0.983973
1.06883
1.15469
1.24159
1.32955
1.4186
1.50876
1.60006
1.69253
1.78621
1.88111
1.97728
2.07475
2.17356
2.27374
2.37533
2.47837
2.58291
2.68898
2.79664
2.90593
3.0169
3.1296
3.2441
3.36044
3.47869
3.59891
3.72117
3.84553
3.97208
4.10088
4.23203
4.3656
4.5017
4.6404
4.78183
4.92609
0.0368016
0.111209
0.186357
0.262282
0.339009
0.41656
0.494954
0.574211
0.654348
0.735386
0.817347
0.900249
0.984117
1.06897
1.15484
1.24174
1.3297
1.41874
1.5089
1.6002
1.69267
1.78635
1.88125
1.97742
2.0749
2.1737
2.27388
2.37547
2.47851
2.58305
2.68912
2.79678
2.90607
3.01704
3.12975
3.24424
3.36058
3.47883
3.59905
3.72131
3.84567
3.97222
4.10103
4.23218
4.36576
4.50186
4.64058
4.78202
4.92625
0.0366467
0.110896
0.18596
0.261839
0.33854
0.416075
0.49446
0.57371
0.653843
0.734879
0.816838
0.899739
0.983606
1.06846
1.15432
1.24122
1.32918
1.41823
1.50839
1.59969
1.69216
1.78583
1.88074
1.97691
2.07438
2.17319
2.27337
2.37496
2.478
2.58254
2.68861
2.79627
2.90556
3.01653
3.12923
3.24373
3.36007
3.47832
3.59854
3.7208
3.84516
3.97171
4.10052
4.23167
4.36525
4.50136
4.64011
4.7816
4.92598
0.0366465
0.110895
0.185959
0.261839
0.33854
0.416075
0.49446
0.573709
0.653842
0.734878
0.816836
0.899737
0.983603
1.06846
1.15432
1.24122
1.32918
1.41823
1.50839
1.59969
1.69216
1.78583
1.88074
1.97691
2.07438
2.17319
2.27336
2.37495
2.478
2.58253
2.68861
2.79626
2.90555
3.01652
3.12923
3.24372
3.36006
3.47831
3.59853
3.72079
3.84516
3.9717
4.10051
4.23167
4.36525
4.50136
4.6401
4.78159
4.92598
0.0368016
0.111209
0.186357
0.262282
0.339009
0.41656
0.494954
0.57421
0.654347
0.735385
0.817345
0.900248
0.984114
1.06897
1.15483
1.24173
1.32969
1.41874
1.5089
1.6002
1.69267
1.78634
1.88125
1.97742
2.07489
2.1737
2.27388
2.37547
2.47851
2.58305
2.68912
2.79678
2.90607
3.01704
3.12974
3.24424
3.36058
3.47883
3.59905
3.7213
3.84567
3.97222
4.10102
4.23217
4.36575
4.50186
4.64058
4.78202
4.92625
0.0366983
0.111035
0.186166
0.262094
0.33883
0.41639
0.494791
0.574053
0.654194
0.735236
0.817199
0.900103
0.983971
1.06883
1.15469
1.24159
1.32955
1.4186
1.50876
1.60006
1.69253
1.7862
1.88111
1.97728
2.07475
2.17356
2.27374
2.37533
2.47837
2.58291
2.68898
2.79664
2.90593
3.0169
3.1296
3.2441
3.36044
3.47869
3.59891
3.72116
3.84553
3.97207
4.10088
4.23203
4.3656
4.50169
4.6404
4.78183
4.92609
0.036823
0.111273
0.186458
0.262413
0.339166
0.416735
0.495143
0.57441
0.654555
0.735599
0.817563
0.900468
0.984337
1.06919
1.15506
1.24196
1.32992
1.41897
1.50913
1.60043
1.6929
1.78657
1.88148
1.97765
2.07512
2.17393
2.27411
2.3757
2.47874
2.58327
2.68935
2.79701
2.90629
3.01727
3.12997
3.24447
3.36081
3.47906
3.59928
3.72153
3.8459
3.97244
4.10125
4.23239
4.36596
4.50205
4.64074
4.78213
4.9263
0.0367059
0.111057
0.186202
0.262141
0.338887
0.416455
0.494863
0.57413
0.654276
0.73532
0.817284
0.90019