/*--------------------------------*- C++ -*----------------------------------*\
  =========                 |
  \\      /  F ield         | OpenFOAM: The Open Source CFD Toolbox
   \\    /   O peration     | Website:  https://openfoam.org
    \\  /    A nd           | Version:  6
     \\/     M anipulation  |
\*---------------------------------------------------------------------------*/
FoamFile
{
    version     2.0;
    format      ascii;
    class       volScalarField;
    location    "0";
    object      Cz;
}
// * * * * * * * * * * * * * * * * * * * * * * * * * * * * * * * * * * * * * //

dimensions      [0 1 0 0 0 0 0];

internalField   nonuniform List<scalar> 
1596
(
0
0
0
1.74151e-18
-5.09686e-18
-4.97393e-18
3.23859e-18
0
0
0
0
0
7.01048e-18
3.53602e-18
0
0
0
-2.17915e-18
0
-1.79727e-18
0
5.23612e-18
3.53758e-18
5.18695e-18
5.17086e-18
0
0
-3.31828e-18
3.52585e-18
5.24313e-18
-3.60578e-18
0
0
3.6959e-18
2.11607e-18
-6.48795e-18
0
-2.53808e-18
0
-1.9083e-18
0
0
-7.17516e-18
1.88863e-18
5.47054e-18
3.58866e-18
3.60284e-18
0
9.06466e-18
-1.95555e-18
-3.79046e-18
0
-6.13759e-18
2.18863e-18
2.30592e-18
0
2.62836e-18
0
1.94333e-18
0
-1.93352e-18
-3.66814e-18
-3.66994e-18
-7.34588e-18
-5.62271e-18
3.70342e-18
-3.72713e-18
3.77578e-18
0
0
5.9237e-18
-4.16126e-18
0
0
-4.85729e-18
-2.50848e-18
0
0
5.76766e-18
0
0
-5.56741e-18
0
7.58777e-18
0
0
0
0
4.03381e-18
6.10745e-18
-2.23905e-18
0
2.43737e-18
0
0
0
0
5.96117e-18
-2.04776e-18
-3.89572e-18
-2.04613e-18
-2.04734e-18
-3.91469e-18
-5.80685e-18
0
0
-1.93815e-18
-1.97694e-18
2.21803e-18
0
-2.36513e-18
7.24559e-18
0
0
-2.05821e-18
0
0
5.97304e-18
0
2.11182e-18
0
0
0
0
0
4.1672e-18
0
0
0
4.59568e-18
-9.6119e-18
0
1.2852e-18
0
0
-4.20847e-18
2.1891e-18
0
-4.15519e-18
0
0
0
0
4.19519e-18
0
0
4.37326e-18
8.98851e-18
2.40018e-18
7.29133e-18
2.60275e-18
2.72331e-18
0
2.30654e-18
0
0
0
0
6.46783e-18
-4.23585e-18
2.0205e-18
4.2256e-18
0
0
2.06934e-18
4.38957e-18
0
4.58666e-18
7.40772e-18
0
-3.89934e-18
0
-2.15226e-18
0
-6.47551e-18
0
0
4.27198e-18
-2.22057e-18
0
4.2222e-18
4.2414e-18
0
4.48487e-18
0
2.31039e-18
0
2.41946e-18
0
6.37036e-18
2.21773e-18
0
0
0
-2.0804e-18
-2.25243e-18
4.27182e-18
0
0
0
-2.19783e-18
0
2.02409e-18
-6.31603e-18
-2.26881e-18
0
-2.36049e-18
4.6692e-18
0
7.06049e-18
-4.60922e-18
0
-2.12861e-18
-2.28439e-18
0
-2.23377e-18
0
0
0
0
6.34529e-18
4.17791e-18
0
-2.22434e-18
0
-4.40651e-18
0
0
0
0
-6.79003e-18
4.39221e-18
0
4.26666e-18
-6.40736e-18
0
-2.15769e-18
1.94807e-18
0
-4.07022e-18
0
-4.08898e-18
1.97393e-18
-2.18158e-18
0
-4.35995e-18
-4.65324e-18
0
4.4782e-18
0
-2.2465e-18
2.20914e-18
-2.18167e-18
4.1132e-18
6.00313e-18
0
0
-2.08058e-18
0
-9.80028e-18
-1.89523e-19
0
-4.03714e-18
2.15129e-18
0
-4.29126e-18
-2.24652e-18
4.38802e-18
-2.04804e-18
2.20043e-18
0
-2.134e-18
4.01637e-18
0
0
2.03483e-18
1.83745e-18
-2.01907e-18
2.01642e-18
5.67677e-18
7.76242e-18
0
0
-4.04674e-18
4.1264e-18
-4.26954e-18
-2.22616e-18
0
0
2.10319e-18
0
4.08926e-18
-5.68e-18
0
0
0
-1.76962e-18
0
0
0
0
0
-3.89845e-18
-1.89027e-18
0
0
0
-3.93815e-18
-3.86943e-18
-3.81683e-18
0
1.95193e-18
-3.67418e-18
0
0
0
8.88751e-18
8.89093e-18
8.95731e-18
0
0
0
0
5.83621e-18
4.12242e-18
2.01983e-18
-1.7987e-18
0
-1.93308e-18
0
0
5.22207e-18
0
-1.89979e-19
0
1.83012e-18
0
3.49714e-18
0
-8.82021e-18
5.34351e-18
0
0
-3.80044e-18
1.95657e-18
0
0
1.87467e-18
0
3.46937e-18
0
0
0
0
0
-5.14025e-18
-8.37138e-18
-1.79599e-18
-5.2702e-18
0
0
5.43288e-18
0
1.87032e-18
2.03543e-18
0
-8.42675e-18
3.36613e-18
6.85279e-18
0
4.81059e-18
-3.25912e-18
4.96668e-18
-6.298e-18
3.4377e-18
0
6.38745e-18
0
1.60047e-18
3.25818e-18
3.38761e-18
0
0
0
-3.28702e-18
0
-4.92463e-18
-4.88211e-18
0
-3.14258e-18
-7.74355e-18
-7.72616e-18
0
-4.60859e-18
0
-6.17399e-18
0
1.54801e-18
-6.49855e-18
1.55263e-18
-4.97102e-18
0
-1.29952e-18
3.13733e-18
0
-4.52998e-18
-1.43531e-18
-6.08664e-18
-1.41679e-18
0
-4.43318e-18
-3.0233e-18
-3.03396e-18
-3.06261e-18
0
0
0
1.72171e-18
4.48358e-18
0
6.09106e-18
-6.04002e-18
6.17819e-18
0
0
7.24816e-18
0
2.9122e-18
0
-4.27882e-18
0
-1.56533e-18
1.90836e-19
5.80719e-18
-3.05195e-18
1.90679e-19
0
7.09479e-18
4.29356e-18
0
-1.5363e-18
0
2.84896e-18
0
2.63265e-18
0
0
8.2577e-18
0
0
2.85584e-18
0
-1.36606e-18
0
0
0
-4.13552e-18
0
0
0
0
0
0
0
8.00572e-18
1.75263e-18
-8.42347e-18
1.85379e-18
0
0
-6.05844e-18
0
-2.32023e-18
4.95884e-18
2.66067e-18
0
2.71505e-18
0
0
0
0
0
-1.94535e-19
0
0
-1.82844e-18
-1.8868e-18
0
-3.87976e-18
-2.14345e-18
0
-2.4113e-18
8.78886e-18
0
0
5.77148e-18
-8.86191e-18
0
-3.10904e-18
-2.96971e-18
0
0
-4.95119e-18
-1.94977e-19
-1.68238e-18
0
9.47736e-18
4.00393e-18
0
4.47829e-18
-2.5071e-18
0
-6.10089e-18
0
0
0
-1.71307e-18
-8.09499e-18
0
4.98842e-18
0
3.73322e-18
0
5.51131e-18
-3.86888e-18
-2.11009e-18
0
0
0
0
-2.87864e-18
0
0
0
1.6126e-18
-5.09866e-18
0
1.88068e-18
1.95455e-19
5.63875e-18
3.77531e-18
0
2.09083e-18
-4.1235e-18
-2.2432e-18
-1.95992e-19
-2.47947e-18
-7.68876e-18
-6.80434e-18
3.29791e-18
-3.42044e-18
-5.36801e-18
3.67549e-18
-5.46659e-18
1.7785e-18
-5.59882e-18
0
0
0
6.00607e-18
0
0
0
2.21299e-18
0
2.67114e-18
9.83767e-18
0
6.76944e-18
-1.98104e-18
0
3.95701e-18
0
-2.11683e-18
0
6.31719e-18
0
2.24159e-18
0
0
0
9.58249e-18
5.19241e-18
2.72222e-18
-7.14054e-18
2.89298e-18
-3.37502e-18
0
2.2016e-18
-2.01365e-18
0
0
-2.27214e-18
0
0
0
0
0
5.03896e-18
0
6.64243e-18
0
4.34206e-18
-7.81088e-18
0
7.47724e-18
-4.38682e-18
2.48845e-18
2.27667e-18
0
0
0
-2.47348e-18
0
0
-3.80399e-18
-1.96638e-19
2.72715e-18
5.64549e-18
0
-1.43722e-18
0
0
0
-4.19712e-18
-2.4847e-18
2.00968e-19
0
2.56186e-18
-2.39085e-18
0
-1.22993e-18
-7.90947e-18
-2.55311e-18
0
0
0
2.87577e-18
0
0
3.58448e-18
-1.8437e-18
2.21889e-18
9.57327e-18
2.87393e-18
3.41563e-18
5.04802e-18
0
0
0
-2.65133e-18
2.66079e-18
0
2.69033e-18
0
-2.75161e-18
-6.93469e-18
0
0
3.1071e-18
-9.87825e-18
1.65288e-18
0
6.30283e-18
0
7.9256e-18
-1.46921e-18
0
0
0
-6.41231e-18
8.02706e-18
5.16359e-18
-1.44215e-18
0
-2.74613e-18
4.09705e-18
0
0
0
3.26254e-18
-5.17781e-18
-5.67317e-18
-2.23291e-18
0
0
0
-5.52652e-18
2.75147e-18
4.0279e-18
4.02557e-18
0
0
1.49366e-18
0
-1.35329e-18
0
4.53391e-18
1.52775e-18
-3.42974e-18
1.95614e-18
4.09446e-18
0
0
2.83075e-18
-4.12104e-18
0
0
-1.49716e-18
-8.2179e-18
-2.81729e-18
0
2.86627e-18
1.5586e-18
0
9.0521e-18
0
0
0
2.04962e-18
-4.32877e-18
0
-6.80395e-18
0
0
5.48813e-18
0
0
8.36509e-18
0
0
1.56209e-18
0
0
4.85447e-18
0
-3.50164e-18
-3.72237e-18
0
2.37001e-18
-2.68049e-18
0
4.22683e-18
1.33797e-18
0
1.3375e-18
-1.3434e-18
0
0
0
2.98177e-18
-1.62291e-18
-1.47082e-18
0
-8.3677e-18
0
0
2.20595e-18
2.26707e-18
-2.80037e-18
4.17016e-18
0
-1.3465e-18
-7.1231e-18
0
0
2.91774e-18
0
-1.92882e-19
1.60542e-18
4.54374e-18
6.55439e-18
0
-8.51732e-18
-3.66997e-18
2.0567e-18
-4.32344e-18
-2.52836e-18
0
0
0
2.89483e-18
-1.5453e-18
0
0
0
0
0
6.07505e-18
0
0
0
0
0
0
0
0
0
0
0
5.59675e-18
0
4.25488e-18
0
-7.23305e-18
-4.53363e-18
0
1.61457e-18
-9.15338e-18
0
0
0
1.95009e-18
2.07892e-18
-4.57271e-18
0
0
-4.16951e-18
-2.89636e-18
0
-2.88696e-18
-2.88871e-18
-4.25889e-18
4.2793e-18
4.31698e-18
7.15619e-18
-5.84217e-18
1.64199e-18
1.6856e-18
0
0
3.66857e-18
1.86382e-18
-2.25645e-18
0
-2.6976e-18
-4.14949e-18
-1.53621e-18
7.07375e-18
1.52938e-18
0
0
0
0
2.94402e-18
5.76889e-18
-4.48069e-18
-2.94185e-18
0
-5.17108e-18
0
0
0
0
-1.49351e-18
0
9.71737e-18
-2.8426e-18
-1.51499e-18
5.4793e-18
0
0
0
0
-7.2255e-18
0
9.01391e-18
0
-7.96486e-18
1.65405e-18
0
2.13147e-18
-4.54175e-18
-2.67573e-18
0
2.82836e-18
-1.90824e-19
0
-9.49429e-18
-2.79801e-18
8.21308e-18
-9.5651e-18
0
0
0
0
6.15765e-18
0
1.7845e-18
8.85346e-18
0
-4.32392e-18
2.53361e-18
-4.03662e-18
0
0
0
9.33415e-18
0
9.32295e-18
2.7532e-18
0
0
0
4.25058e-18
8.93243e-18
-1.63677e-18
0
5.04305e-18
0
0
-4.5763e-18
0
0
9.22088e-18
1.25484e-18
0
2.48837e-18
0
-2.67616e-18
0
2.89261e-18
1.46679e-18
0
1.52669e-18
0
0
0
1.85144e-18
3.84339e-18
-2.03861e-18
-3.80651e-18
0
0
-2.64476e-18
-2.6445e-18
-3.88535e-18
0
0
3.96962e-18
-1.27618e-18
0
0
4.35945e-18
-7.63788e-18
-1.1374e-17
0
1.99886e-18
0
0
-2.43491e-18
0
2.58132e-18
0
-6.34026e-18
-2.69506e-18
0
0
0
2.76108e-18
5.93881e-18
1.88837e-19
0
-1.88072e-18
0
-1.87725e-19
0
0
-3.39442e-18
4.44959e-18
-4.58756e-18
6.85046e-18
7.12459e-18
-4.74569e-18
7.32768e-18
2.54581e-18
2.59529e-18
2.65469e-18
0
-2.81583e-18
0
0
1.71293e-18
-5.12652e-18
0
0
-4.75718e-18
0
9.34884e-20
-4.25602e-18
4.29415e-18
-8.68751e-18
-1.9005e-19
0
-2.36148e-18
7.0241e-18
-7.17912e-18
-2.51337e-18
-3.79836e-18
-2.68968e-18
0
0
-1.67247e-18
0
0
0
2.28853e-18
-3.82215e-18
0
0
0
0
-2.16595e-18
0
-4.28239e-18
-2.2823e-18
-4.47593e-18
0
0
-1.20006e-18
2.71552e-18
0
6.16494e-18
1.58878e-18
1.95928e-18
6.38432e-18
1.81802e-18
3.67171e-18
9.16893e-18
-5.5276e-18
3.79365e-18
0
2.04968e-18
0
0
2.17371e-18
0
0
-2.40336e-18
0
0
-1.8964e-19
-4.51507e-18
-5.15904e-18
1.78282e-18
3.15679e-18
-1.78646e-18
0
-5.28652e-18
0
7.12443e-18
-1.90564e-18
0
-1.98097e-18
-1.83441e-18
0
4.11888e-18
-2.23806e-18
-4.48701e-18
2.47375e-18
-3.83837e-18
0
-4.73526e-18
-5.21313e-18
-1.4609e-18
-3.14793e-18
-3.18377e-18
4.74619e-18
-1.73251e-18
6.65904e-18
0
0
5.20591e-18
0
-1.96319e-18
2.02785e-18
0
0
0
-2.45595e-18
0
4.2135e-18
0
-2.84899e-18
4.37503e-18
-1.41233e-18
-1.62605e-18
3.10628e-18
0
-4.73243e-18
1.73864e-18
1.77706e-18
0
0
0
-2.00881e-18
0
-2.20975e-18
2.14153e-18
-4.814e-18
2.70621e-18
0
0
0
0
0
1.60993e-18
0
1.47241e-18
0
0
-3.16163e-18
0
0
0
-7.75366e-18
-1.94882e-18
0
-2.40771e-18
-2.59081e-18
-2.80333e-18
0
-4.27198e-18
4.31432e-18
2.78592e-18
0
0
-9.1477e-18
4.85253e-18
0
-1.91913e-19
0
3.50918e-18
0
-3.77894e-18
-3.9694e-18
0
0
2.47554e-18
-6.54613e-18
4.23842e-18
0
0
0
-8.38827e-18
0
0
-1.50702e-18
1.31064e-18
0
-5.43166e-18
0
-2.83153e-18
-1.5215e-18
1.34648e-18
0
4.36295e-18
0
0
3.02265e-18
-1.63784e-18
-6.09453e-18
5.85053e-18
1.59408e-18
0
7.29137e-18
0
-1.55988e-18
1.55337e-18
0
8.56114e-18
0
0
5.75435e-18
-3.00084e-18
0
6.41974e-18
4.66841e-18
1.55263e-18
0
3.20727e-18
2.98083e-18
1.6662e-18
3.11382e-18
0
5.93413e-18
0
1.60964e-18
5.85447e-18
6.235e-18
-3.0254e-18
0
0
0
0
3.19547e-18
4.9794e-18
0
-3.42906e-18
6.74708e-18
0
1.74121e-18
0
0
0
0
0
0
0
0
-6.27646e-18
0
4.6805e-18
0
0
1.76979e-18
-3.59307e-18
0
0
0
0
0
6.54452e-18
4.90427e-18
0
0
3.26172e-18
3.25032e-18
4.96646e-18
-4.7789e-18
-8.08901e-18
8.13221e-18
-1.76589e-18
0
-3.45088e-18
5.73076e-18
0
3.72595e-18
5.59759e-18
0
0
2.0459e-18
-6.94441e-18
3.43726e-18
0
0
0
4.95148e-18
0
0
0
0
3.50849e-18
-1.87961e-18
1.91381e-18
5.80674e-18
0
1.9918e-18
-1.7672e-18
0
0
0
-3.54764e-18
0
0
0
1.83304e-18
0
1.92752e-19
0
0
0
-1.94189e-18
0
0
0
0
-3.87257e-18
3.81995e-18
7.52662e-18
3.71699e-18
0
-3.63608e-18
-3.61983e-18
1.89801e-18
5.68324e-18
-3.59738e-18
0
3.44895e-18
0
-3.76009e-18
0
0
-2.22962e-18
2.18018e-18
0
-2.10648e-18
0
-3.90267e-18
0
5.61959e-18
0
0
-3.7321e-18
1.76594e-18
-1.7668e-18
0
0
3.83366e-18
0
-1.89026e-18
0
6.68388e-18
0
0
-4.13851e-18
0
0
0
0
-2.03804e-18
0
1.82944e-18
0
0
2.03863e-18
-2.05015e-18
0
0
6.29126e-18
9.08121e-18
2.14424e-18
0
-6.55641e-18
-4.23179e-18
-2.18495e-18
-4.11645e-18
6.00636e-18
0
-1.89668e-18
-3.97469e-18
0
2.07704e-18
-3.97059e-18
-4.01112e-18
0
0
-2.19816e-18
-2.24376e-18
2.33718e-18
-4.76084e-18
4.46675e-18
0
-4.32241e-18
0
-4.21151e-18
4.1661e-18
4.12879e-18
0
0
-4.07342e-18
4.07732e-18
0
-4.14058e-18
-4.17712e-18
0
2.27807e-18
4.46776e-18
-4.61565e-18
0
0
0
-4.38198e-18
-4.33449e-18
2.23688e-18
2.21659e-18
4.4009e-18
1.99008e-18
0
0
0
0
4.45512e-18
4.30879e-18
-6.71114e-18
-2.35866e-18
2.4193e-18
-6.8489e-18
9.09142e-18
0
-2.30168e-18
0
-6.57261e-18
0
-4.24465e-18
0
4.19855e-18
-4.2084e-18
0
0
0
-6.62257e-18
2.30293e-18
0
-2.4325e-18
-2.50599e-18
0
0
-2.11707e-18
2.28802e-18
0
2.25067e-18
-2.23369e-18
0
0
-2.20875e-18
0
4.26328e-18
0
-6.4214e-18
0
0
0
0
-2.58908e-18
0
6.73293e-18
0
-6.59328e-18
0
0
4.44323e-18
6.4533e-18
2.2133e-18
0
2.03181e-18
2.23937e-18
0
0
-4.495e-18
-2.19823e-18
0
-4.93648e-18
2.66551e-18
-2.14742e-18
-2.22232e-18
2.20136e-18
0
4.16443e-18
0
2.16844e-18
0
-2.17157e-18
-2.17473e-18
4.1967e-18
2.02334e-18
0
-4.37486e-18
6.8401e-18
2.40189e-18
-1.92419e-19
0
-1.45883e-18
4.02123e-18
0
4.05927e-18
2.1197e-18
0
0
0
4.03644e-18
0
0
0
-2.18025e-18
1.92404e-19
-4.51964e-18
-2.13515e-18
4.59664e-18
2.30734e-18
5.24625e-18
0
0
0
-2.05126e-18
-3.90329e-18
3.89581e-18
0
1.85506e-18
0
3.93541e-18
1.88271e-18
2.10111e-18
0
2.16916e-18
-2.21814e-18
0
0
-2.47932e-18
-3.82692e-18
-5.3521e-18
1.90439e-18
0
0
3.77525e-18
-5.55962e-18
0
0
-5.78596e-18
0
0
3.89231e-18
0
1.92056e-18
-6.10675e-18
0
0
-2.43657e-18
0
-2.75077e-18
-5.36614e-18
0
-3.67948e-18
-1.74036e-18
0
0
0
5.42828e-18
0
0
-3.77445e-18
-5.84512e-18
0
4.20388e-18
8.31951e-18
4.31988e-18
-6.93634e-18
4.85552e-18
0
-3.54049e-18
0
0
0
0
-8.85911e-18
3.5807e-18
-1.88922e-18
-3.7926e-18
-5.33502e-18
5.39816e-18
0
0
1.84629e-18
-4.02499e-18
0
0
0
5.2512e-18
6.98949e-18
3.57137e-18
5.23383e-18
-8.74255e-18
1.66442e-18
-3.50952e-18
-1.84693e-18
0
-5.16883e-18
3.52351e-18
3.55764e-18
3.60335e-18
0
3.75646e-18
3.88729e-18
-1.9138e-19
2.03311e-18
-4.53654e-18
-7.41274e-18
-1.6814e-18
-1.91183e-19
-3.50633e-18
0
-6.92184e-18
0
3.62105e-18
5.0386e-18
0
-3.43118e-18
-5.28137e-18
5.33833e-18
0
0
0
2.03939e-18
0
0
4.86977e-18
)
;

boundaryField
{
    up
    {
        type            calculated;
        value           uniform 0;
    }
    low
    {
        type            calculated;
        value           uniform 0;
    }
    left
    {
        type            calculated;
        value           uniform 0;
    }
    right
    {
        type            calculated;
        value           uniform 0;
    }
    frontAndBackPlanes
    {
        type            empty;
    }
}


// ************************************************************************* //
