/*--------------------------------*- C++ -*----------------------------------*\
  =========                 |
  \\      /  F ield         | OpenFOAM: The Open Source CFD Toolbox
   \\    /   O peration     | Website:  https://openfoam.org
    \\  /    A nd           | Version:  6
     \\/     M anipulation  |
\*---------------------------------------------------------------------------*/
FoamFile
{
    version     2.0;
    format      ascii;
    class       volScalarField;
    location    "90";
    object      gradTx;
}
// * * * * * * * * * * * * * * * * * * * * * * * * * * * * * * * * * * * * * //

dimensions      [0 -1 0 1 0 0 0];

internalField   nonuniform List<scalar> 
13524
(
1.04928
1.06048
1.0718
1.08329
1.09497
1.10686
1.119
1.13139
1.14405
1.157
1.17024
1.18378
1.19763
1.21181
1.22633
1.2412
1.25644
1.27205
1.28806
1.30447
1.32131
1.33858
1.35631
1.37452
1.39323
1.41245
1.43221
1.45252
1.47343
1.49494
1.5171
1.53993
1.56345
1.5877
1.61271
1.63852
1.66516
1.69269
1.72114
1.75056
1.78101
1.81255
1.84523
1.87914
1.91436
1.95102
1.98932
2.02972
2.07353
1.05292
1.06274
1.07331
1.08437
1.09581
1.10757
1.11962
1.13196
1.1446
1.15752
1.17075
1.18428
1.19813
1.21231
1.22683
1.2417
1.25695
1.27257
1.28858
1.305
1.32184
1.33912
1.35686
1.37507
1.39378
1.41301
1.43278
1.45311
1.47402
1.49554
1.51771
1.54054
1.56407
1.58833
1.61335
1.63917
1.66583
1.69337
1.72183
1.75126
1.78172
1.81327
1.84597
1.87988
1.9151
1.95171
1.9898
2.02934
2.0696
1.08775
1.09948
1.11108
1.12279
1.13472
1.14691
1.15938
1.17213
1.18519
1.19856
1.21225
1.22625
1.24058
1.25526
1.2703
1.2857
1.30148
1.31765
1.33422
1.35122
1.36866
1.38656
1.40492
1.42378
1.44315
1.46306
1.48353
1.50458
1.52623
1.54852
1.57147
1.59511
1.61947
1.64459
1.6705
1.69723
1.72483
1.75335
1.78281
1.81329
1.84483
1.87748
1.91132
1.94641
1.98283
2.02066
2.06
2.10111
2.14486
1.10399
1.11446
1.12563
1.13726
1.14925
1.16156
1.17418
1.1871
1.20032
1.21386
1.22771
1.24189
1.2564
1.27127
1.28649
1.30209
1.31807
1.33444
1.35123
1.36845
1.38611
1.40423
1.42283
1.44193
1.46155
1.48172
1.50244
1.52376
1.54568
1.56826
1.5915
1.61545
1.64012
1.66556
1.69179
1.71887
1.74682
1.77569
1.80554
1.8364
1.86833
1.90139
1.93565
1.97115
2.00797
2.04616
2.08573
2.12657
2.16781
1.12338
1.13563
1.14772
1.1599
1.17229
1.18492
1.19783
1.21104
1.22455
1.23837
1.25251
1.26698
1.2818
1.29696
1.3125
1.3284
1.34471
1.36142
1.37855
1.39611
1.41413
1.43261
1.45159
1.47107
1.49109
1.51167
1.53282
1.55456
1.57693
1.59996
1.62367
1.6481
1.67327
1.69922
1.72599
1.75361
1.78212
1.81158
1.84202
1.87351
1.90608
1.9398
1.97473
2.01094
2.04847
2.08739
2.12777
2.16981
2.21438
1.15112
1.16224
1.17405
1.18632
1.19894
1.21187
1.22509
1.23862
1.25245
1.2666
1.28108
1.29588
1.31104
1.32657
1.34246
1.35873
1.37541
1.3925
1.41002
1.42799
1.44642
1.46533
1.48474
1.50467
1.52514
1.54618
1.56781
1.59005
1.61294
1.6365
1.66075
1.68573
1.71148
1.73802
1.7654
1.79365
1.82281
1.85294
1.88408
1.91628
1.9496
1.98409
2.01982
2.05684
2.09522
2.135
2.17617
2.21858
2.2613
1.15689
1.16973
1.1824
1.19512
1.20802
1.22115
1.23454
1.24821
1.26218
1.27646
1.29106
1.306
1.32128
1.33692
1.35294
1.36935
1.38616
1.40338
1.42104
1.43915
1.45772
1.47678
1.49634
1.51643
1.53707
1.55828
1.58007
1.60249
1.62555
1.64929
1.67373
1.69891
1.72486
1.75161
1.7792
1.80767
1.83707
1.86744
1.89882
1.93127
1.96485
1.99962
2.03563
2.07296
2.11167
2.15183
2.19353
2.23694
2.28282
1.1936
1.20562
1.21818
1.23111
1.24435
1.25787
1.27167
1.28576
1.30016
1.31488
1.32993
1.34533
1.36107
1.37719
1.39369
1.41059
1.42791
1.44565
1.46385
1.4825
1.50164
1.52127
1.54142
1.56211
1.58337
1.60522
1.62768
1.65077
1.67453
1.69898
1.72416
1.7501
1.77683
1.80439
1.83281
1.86213
1.89242
1.9237
1.95603
1.98946
2.02406
2.05988
2.097
2.13548
2.1754
2.21685
2.25988
2.30446
2.35015
1.19218
1.20516
1.21816
1.2313
1.24462
1.25818
1.272
1.28611
1.30051
1.31524
1.33029
1.34568
1.36143
1.37756
1.39406
1.41097
1.42829
1.44603
1.46423
1.48289
1.50203
1.52167
1.54183
1.56253
1.58379
1.60564
1.6281
1.6512
1.67497
1.69943
1.72462
1.75057
1.7773
1.80487
1.83329
1.86263
1.89292
1.92421
1.95655
1.99
2.02461
2.06045
2.09759
2.13611
2.1761
2.21766
2.26092
2.30607
2.35333
1.22917
1.24245
1.25574
1.26919
1.28285
1.29677
1.31098
1.32548
1.34031
1.35547
1.37098
1.38683
1.40306
1.41967
1.43668
1.4541
1.47195
1.49024
1.50899
1.52822
1.54794
1.56818
1.58895
1.61029
1.63221
1.65473
1.67788
1.70168
1.72617
1.75138
1.77734
1.80408
1.83163
1.86004
1.88933
1.91957
1.95079
1.98303
2.01636
2.05083
2.08651
2.12344
2.16173
2.20143
2.24266
2.28553
2.33024
2.37718
2.4275
1.2352
1.24698
1.25954
1.27262
1.28611
1.29994
1.31411
1.3286
1.34343
1.3586
1.37412
1.39001
1.40627
1.42291
1.43995
1.45741
1.4753
1.49363
1.51243
1.5317
1.55147
1.57175
1.59257
1.61395
1.63592
1.65849
1.68169
1.70555
1.7301
1.75537
1.78138
1.80818
1.8358
1.86427
1.89364
1.92394
1.95523
1.98755
2.02095
2.0555
2.09125
2.12827
2.16663
2.20641
2.24769
2.29057
2.33512
2.38128
2.42822
1.25916
1.27274
1.28621
1.29982
1.31367
1.32781
1.34228
1.35707
1.37221
1.38769
1.40353
1.41975
1.43635
1.45335
1.47075
1.48858
1.50685
1.52557
1.54477
1.56445
1.58464
1.60536
1.62663
1.64847
1.67091
1.69396
1.71766
1.74203
1.7671
1.7929
1.81948
1.84685
1.87506
1.90414
1.93413
1.96508
1.99704
2.03005
2.06417
2.09945
2.13596
2.17376
2.21293
2.25353
2.29565
2.33938
2.38484
2.43224
2.48249
1.27291
1.28521
1.29822
1.31172
1.3256
1.33982
1.35439
1.3693
1.38457
1.40019
1.41618
1.43254
1.44928
1.46643
1.48399
1.50198
1.52041
1.53931
1.55868
1.57854
1.59891
1.61981
1.64127
1.66331
1.68594
1.70921
1.73312
1.75771
1.78301
1.80905
1.83586
1.86348
1.89194
1.92128
1.95155
1.98278
2.01502
2.04833
2.08275
2.11835
2.15518
2.19331
2.23281
2.27375
2.31621
2.36024
2.40588
2.45303
2.50092
1.28652
1.30043
1.31423
1.32817
1.34236
1.35683
1.37162
1.38673
1.4022
1.41802
1.43422
1.45079
1.46775
1.48512
1.50291
1.52113
1.53979
1.55893
1.57854
1.59866
1.61929
1.64047
1.6622
1.68452
1.70744
1.731
1.75522
1.78012
1.80574
1.83211
1.85927
1.88724
1.91607
1.94578
1.97643
2.00806
2.04072
2.07445
2.10931
2.14536
2.18266
2.22127
2.26127
2.30272
2.34569
2.39026
2.43653
2.48471
2.53566
1.30641
1.31919
1.33265
1.34658
1.36088
1.37553
1.39053
1.40587
1.42157
1.43762
1.45405
1.47085
1.48805
1.50567
1.52371
1.54218
1.56111
1.58051
1.6004
1.6208
1.64171
1.66318
1.68521
1.70784
1.73109
1.75497
1.77952
1.80477
1.83075
1.85748
1.88502
1.91338
1.9426
1.97273
2.0038
2.03587
2.06898
2.10318
2.13853
2.17508
2.21289
2.25204
2.29259
2.33461
2.37818
2.42334
2.47014
2.51849
2.56767
1.31186
1.32605
1.34019
1.35448
1.36901
1.38383
1.39896
1.41442
1.43023
1.44641
1.46295
1.47987
1.49718
1.51491
1.53306
1.55165
1.5707
1.59022
1.61024
1.63076
1.65181
1.67341
1.69558
1.71834
1.74173
1.76577
1.79047
1.81587
1.84201
1.86891
1.89661
1.92515
1.95455
1.98487
2.01613
2.0484
2.08171
2.11613
2.15169
2.18847
2.22652
2.26592
2.30673
2.34903
2.39288
2.43838
2.48561
2.53478
2.58663
1.33583
1.34909
1.36301
1.37738
1.39212
1.4072
1.42261
1.43835
1.45445
1.4709
1.48774
1.50495
1.52257
1.54061
1.55907
1.57798
1.59736
1.61721
1.63757
1.65844
1.67985
1.70181
1.72436
1.74751
1.7713
1.79574
1.82087
1.8467
1.87328
1.90064
1.92881
1.95783
1.98774
2.01857
2.05036
2.08318
2.11706
2.15206
2.18823
2.22564
2.26435
2.30443
2.34595
2.38899
2.43363
2.47996
2.52801
2.57771
2.62835
1.33497
1.34959
1.36415
1.37884
1.39375
1.40892
1.42439
1.44019
1.45633
1.47282
1.48969
1.50693
1.52458
1.54264
1.56113
1.58007
1.59947
1.61936
1.63974
1.66065
1.68208
1.70408
1.72665
1.74984
1.77366
1.79813
1.82329
1.84916
1.87578
1.90317
1.93138
1.96044
1.99039
2.02126
2.0531
2.08596
2.11989
2.15494
2.19116
2.22863
2.26739
2.30754
2.34914
2.39227
2.43703
2.48353
2.53191
2.58239
2.63563
1.36007
1.37437
1.38894
1.40379
1.41892
1.43435
1.45009
1.46617
1.4826
1.49939
1.51656
1.53412
1.55209
1.57048
1.58931
1.60859
1.62834
1.64858
1.66934
1.69062
1.71244
1.73483
1.75782
1.78142
1.80567
1.83059
1.8562
1.88254
1.90964
1.93753
1.96625
1.99583
2.02632
2.05775
2.09017
2.12362
2.15816
2.19385
2.23073
2.26887
2.30835
2.34923
2.39159
2.43553
2.48114
2.52854
2.57787
2.62935
2.68337
1.3611
1.375
1.38935
1.40407
1.41913
1.43452
1.45023
1.4663
1.48271
1.4995
1.51666
1.53422
1.55218
1.57057
1.5894
1.60868
1.62843
1.64868
1.66943
1.69071
1.71254
1.73493
1.75792
1.78152
1.80577
1.83069
1.85631
1.88265
1.90975
1.93764
1.96636
1.99595
2.02644
2.05787
2.09029
2.12375
2.1583
2.19398
2.23087
2.26902
2.3085
2.34938
2.39176
2.4357
2.48132
2.52872
2.578
2.62926
2.68227
1.38057
1.39534
1.41015
1.42517
1.44046
1.45606
1.472
1.48829
1.50493
1.52196
1.53937
1.55718
1.57541
1.59407
1.61317
1.63274
1.65279
1.67333
1.6944
1.716
1.73815
1.76088
1.78421
1.80816
1.83278
1.85807
1.88407
1.9108
1.93831
1.96662
1.99577
2.0258
2.05675
2.08865
2.12155
2.15551
2.19057
2.2268
2.26424
2.30296
2.34302
2.38452
2.42752
2.47212
2.5184
2.56649
2.61651
2.66871
2.7238
1.38501
1.39877
1.41314
1.42797
1.44318
1.45875
1.47467
1.49096
1.50762
1.52466
1.54209
1.55993
1.57818
1.59687
1.61601
1.63561
1.65569
1.67627
1.69736
1.719
1.74119
1.76396
1.78733
1.81133
1.83598
1.86132
1.88736
1.91414
1.9417
1.97006
1.99926
2.02934
2.06034
2.0923
2.12527
2.15928
2.19441
2.23069
2.26819
2.30698
2.34712
2.38868
2.43175
2.4764
2.52273
2.57083
2.62077
2.67253
2.72561
1.39836
1.41321
1.42813
1.44327
1.4587
1.47445
1.49055
1.50701
1.52384
1.54105
1.55867
1.57669
1.59513
1.61402
1.63336
1.65316
1.67345
1.69425
1.71558
1.73744
1.75987
1.78288
1.8065
1.83076
1.85568
1.88129
1.90761
1.93468
1.96253
1.99119
2.02071
2.05111
2.08245
2.11475
2.14806
2.18245
2.21794
2.25462
2.29252
2.33172
2.37228
2.41428
2.4578
2.50291
2.54971
2.5983
2.64877
2.70132
2.75654
1.40444
1.41853
1.43316
1.44821
1.46363
1.47941
1.49555
1.51205
1.52893
1.5462
1.56387
1.58195
1.60045
1.61939
1.63879
1.65866
1.67902
1.69989
1.72128
1.74322
1.76572
1.78881
1.8125
1.83684
1.86184
1.88754
1.91395
1.94111
1.96905
1.9978
2.02742
2.05793
2.08936
2.12177
2.1552
2.18969
2.22531
2.2621
2.30013
2.33945
2.38015
2.42228
2.46593
2.51118
2.55811
2.60681
2.65735
2.70974
2.76362
1.41354
1.42849
1.44355
1.45885
1.47445
1.49037
1.50664
1.52327
1.54027
1.55767
1.57547
1.59368
1.61232
1.6314
1.65094
1.67096
1.69147
1.71248
1.73404
1.75614
1.7788
1.80206
1.82593
1.85045
1.87564
1.90152
1.92813
1.95549
1.98363
2.0126
2.04244
2.07317
2.10484
2.13749
2.17116
2.20591
2.24179
2.27886
2.31716
2.35678
2.39776
2.4402
2.48417
2.52974
2.57701
2.62607
2.67703
2.73006
2.78567
1.42012
1.43451
1.44937
1.46463
1.48024
1.49621
1.51254
1.52923
1.54631
1.56377
1.58164
1.59992
1.61863
1.63779
1.65741
1.6775
1.69809
1.71919
1.74083
1.76302
1.78577
1.80912
1.83309
1.8577
1.88298
1.90897
1.93568
1.96314
1.9914
2.02049
2.05044
2.08129
2.11308
2.14586
2.17966
2.21455
2.25057
2.28778
2.32623
2.366
2.40714
2.44975
2.49388
2.53963
2.58708
2.63632
2.68743
2.74045
2.79516
1.42627
1.44128
1.45645
1.47189
1.48763
1.5037
1.52013
1.53691
1.55408
1.57163
1.58959
1.60796
1.62677
1.64603
1.66574
1.68594
1.70663
1.72784
1.74958
1.77188
1.79475
1.81822
1.8423
1.86704
1.89245
1.91857
1.94541
1.97301
2.00141
2.03065
2.06075
2.09175
2.12371
2.15665
2.19062
2.22568
2.26188
2.29928
2.33792
2.37789
2.41924
2.46206
2.50641
2.55239
2.60008
2.64958
2.701
2.7545
2.81048
1.4323
1.44694
1.46199
1.47742
1.4932
1.50932
1.52581
1.54266
1.55989
1.57751
1.59554
1.61399
1.63286
1.65219
1.67198
1.69226
1.71303
1.73432
1.75614
1.77852
1.80148
1.82503
1.84921
1.87404
1.89955
1.92576
1.9527
1.98041
2.00892
2.03826
2.06847
2.0996
2.13167
2.16473
2.19883
2.23403
2.27036
2.3079
2.34669
2.3868
2.42831
2.47129
2.51581
2.56197
2.60984
2.65953
2.71112
2.76469
2.82014
1.43647
1.45149
1.46674
1.48228
1.49814
1.51434
1.53089
1.5478
1.56509
1.58278
1.60087
1.61938
1.63832
1.65772
1.67758
1.69792
1.71876
1.74012
1.76202
1.78448
1.80751
1.83114
1.8554
1.88031
1.90591
1.93221
1.95924
1.98704
2.01564
2.04508
2.0754
2.10663
2.13881
2.17198
2.2062
2.24151
2.27796
2.31562
2.35455
2.3948
2.43645
2.47957
2.52425
2.57056
2.61861
2.66848
2.72028
2.77417
2.83042
1.44115
1.456
1.47121
1.48677
1.50266
1.51891
1.5355
1.55247
1.56982
1.58756
1.60571
1.62428
1.64328
1.66274
1.68266
1.70307
1.72397
1.7454
1.76736
1.78989
1.81299
1.8367
1.86103
1.88602
1.91169
1.93807
1.96519
1.99307
2.02176
2.05129
2.0817
2.11302
2.1453
2.17857
2.2129
2.24831
2.28488
2.32266
2.3617
2.40208
2.44385
2.48711
2.53193
2.57839
2.62659
2.67662
2.72859
2.78258
2.83864
1.44398
1.45898
1.47428
1.4899
1.50584
1.52212
1.53876
1.55577
1.57316
1.59094
1.60913
1.62774
1.64679
1.66629
1.68625
1.7067
1.72765
1.74913
1.77114
1.79372
1.81687
1.84063
1.86501
1.89005
1.91578
1.94222
1.96939
1.99734
2.02609
2.05568
2.08615
2.11754
2.14989
2.18324
2.21763
2.25313
2.28977
2.32763
2.36676
2.40722
2.44909
2.49245
2.53737
2.58394
2.63225
2.6824
2.7345
2.78867
2.84507
1.44683
1.46185
1.47718
1.49283
1.5088
1.52512
1.5418
1.55884
1.57627
1.59409
1.61232
1.63097
1.65006
1.6696
1.6896
1.71009
1.73109
1.75261
1.77466
1.79728
1.82048
1.84429
1.86872
1.89382
1.9196
1.94609
1.97332
2.00132
2.03012
2.05978
2.09031
2.12176
2.15417
2.18759
2.22205
2.25762
2.29434
2.33227
2.37148
2.41203
2.45398
2.49743
2.54244
2.58911
2.63753
2.6878
2.74002
2.79432
2.85084
1.44864
1.46359
1.4789
1.49455
1.51055
1.52689
1.54359
1.56066
1.57811
1.59596
1.61421
1.63288
1.65199
1.67156
1.69159
1.7121
1.73312
1.75466
1.77675
1.7994
1.82263
1.84646
1.87092
1.89604
1.92185
1.94838
1.97564
2.00367
2.03251
2.0622
2.09277
2.12426
2.15671
2.19016
2.22467
2.26028
2.29704
2.33502
2.37428
2.41488
2.45688
2.50038
2.54546
2.59219
2.64067
2.69101
2.74331
2.79766
2.85409
1.4494
1.46459
1.48002
1.49573
1.51177
1.52814
1.54486
1.56194
1.57941
1.59727
1.61554
1.63423
1.65336
1.67294
1.69299
1.71352
1.73456
1.75612
1.77822
1.80089
1.82414
1.84799
1.87247
1.89762
1.92345
1.94999
1.97728
2.00533
2.0342
2.06391
2.0945
2.12602
2.1585
2.19198
2.22651
2.26215
2.29895
2.33696
2.37625
2.41688
2.45893
2.50247
2.54758
2.59436
2.64289
2.69328
2.74566
2.80016
2.85711
1.45024
1.46515
1.48046
1.49613
1.51215
1.52851
1.54523
1.56232
1.57979
1.59766
1.61594
1.63463
1.65376
1.67335
1.6934
1.71394
1.73499
1.75655
1.77866
1.80133
1.82459
1.84845
1.87294
1.89808
1.92392
1.95047
1.97776
2.00583
2.0347
2.06442
2.09502
2.12655
2.15903
2.19252
2.22707
2.26271
2.29952
2.33754
2.37684
2.41748
2.45954
2.50309
2.54822
2.595
2.64355
2.69395
2.74632
2.80074
2.85718
1.44939
1.46459
1.48002
1.49574
1.51177
1.52814
1.54485
1.56194
1.57941
1.59727
1.61554
1.63423
1.65336
1.67294
1.69299
1.71352
1.73456
1.75612
1.77822
1.80089
1.82414
1.84799
1.87247
1.89762
1.92345
1.94999
1.97727
2.00533
2.0342
2.06391
2.0945
2.12602
2.1585
2.19198
2.22651
2.26215
2.29895
2.33696
2.37625
2.41688
2.45893
2.50247
2.54758
2.59436
2.64289
2.69328
2.74566
2.80016
2.85711
1.44864
1.46359
1.4789
1.49456
1.51055
1.52689
1.54359
1.56066
1.57811
1.59596
1.61421
1.63288
1.65199
1.67156
1.69159
1.7121
1.73312
1.75467
1.77675
1.7994
1.82263
1.84646
1.87092
1.89604
1.92185
1.94837
1.97564
2.00367
2.03251
2.0622
2.09277
2.12426
2.15671
2.19016
2.22467
2.26028
2.29704
2.33502
2.37428
2.41488
2.45688
2.50038
2.54546
2.59219
2.64067
2.69101
2.74331
2.79766
2.85409
1.44684
1.46186
1.47718
1.49283
1.5088
1.52512
1.5418
1.55885
1.57627
1.59409
1.61232
1.63097
1.65006
1.6696
1.6896
1.7101
1.73109
1.75261
1.77467
1.79728
1.82048
1.84429
1.86872
1.89382
1.91959
1.94608
1.97331
2.00131
2.03012
2.05977
2.09031
2.12176
2.15417
2.18759
2.22205
2.25762
2.29434
2.33227
2.37148
2.41203
2.45399
2.49743
2.54244
2.58911
2.63753
2.6878
2.74002
2.79432
2.85084
1.44399
1.45898
1.47428
1.48989
1.50584
1.52212
1.53876
1.55577
1.57316
1.59094
1.60913
1.62774
1.64679
1.66629
1.68625
1.7067
1.72765
1.74913
1.77114
1.79371
1.81687
1.84062
1.86501
1.89005
1.91578
1.94222
1.96939
1.99734
2.02609
2.05568
2.08615
2.11754
2.14989
2.18324
2.21763
2.25313
2.28977
2.32763
2.36676
2.40722
2.44909
2.49245
2.53737
2.58394
2.63225
2.6824
2.7345
2.78867
2.84507
1.44115
1.456
1.47121
1.48677
1.50267
1.51891
1.5355
1.55247
1.56982
1.58756
1.60571
1.62428
1.64328
1.66274
1.68266
1.70307
1.72397
1.7454
1.76736
1.78989
1.81299
1.8367
1.86103
1.88602
1.91169
1.93807
1.96519
1.99307
2.02176
2.05129
2.0817
2.11302
2.1453
2.17857
2.2129
2.24831
2.28488
2.32266
2.3617
2.40208
2.44385
2.48711
2.53193
2.57839
2.62659
2.67662
2.72859
2.78258
2.83864
1.43646
1.45148
1.46674
1.48229
1.49814
1.51434
1.53088
1.5478
1.56509
1.58278
1.60087
1.61938
1.63832
1.65772
1.67758
1.69792
1.71876
1.74012
1.76202
1.78448
1.80751
1.83114
1.8554
1.88031
1.90591
1.93221
1.95924
1.98704
2.01564
2.04508
2.0754
2.10663
2.13881
2.17198
2.2062
2.24151
2.27796
2.31563
2.35455
2.3948
2.43645
2.47957
2.52425
2.57056
2.61861
2.66848
2.72028
2.77417
2.83042
1.4323
1.44694
1.462
1.47742
1.4932
1.50932
1.5258
1.54266
1.55989
1.57751
1.59554
1.61398
1.63286
1.65219
1.67198
1.69226
1.71303
1.73432
1.75614
1.77852
1.80148
1.82503
1.84921
1.87404
1.89955
1.92576
1.95271
1.98041
2.00892
2.03826
2.06847
2.0996
2.13167
2.16473
2.19883
2.23403
2.27036
2.3079
2.34669
2.3868
2.42831
2.47129
2.51581
2.56197
2.60984
2.65953
2.71112
2.76469
2.82014
1.42627
1.44128
1.45645
1.47189
1.48763
1.5037
1.52013
1.53691
1.55407
1.57163
1.58959
1.60796
1.62677
1.64603
1.66574
1.68594
1.70663
1.72784
1.74958
1.77188
1.79475
1.81822
1.84231
1.86704
1.89245
1.91857
1.94541
1.97302
2.00142
2.03065
2.06075
2.09176
2.12371
2.15665
2.19062
2.22568
2.26188
2.29928
2.33793
2.37789
2.41924
2.46206
2.50641
2.55239
2.60008
2.64958
2.701
2.7545
2.81048
1.42012
1.4345
1.44937
1.46462
1.48024
1.49621
1.51254
1.52923
1.54631
1.56377
1.58164
1.59992
1.61864
1.63779
1.65741
1.67751
1.69809
1.7192
1.74083
1.76302
1.78577
1.80912
1.83309
1.8577
1.88299
1.90897
1.93568
1.96315
1.9914
2.02049
2.05044
2.08129
2.11309
2.14586
2.17967
2.21455
2.25057
2.28778
2.32623
2.366
2.40714
2.44975
2.49388
2.53963
2.58708
2.63631
2.68743
2.74045
2.79516
1.41354
1.42849
1.44355
1.45885
1.47445
1.49037
1.50664
1.52327
1.54027
1.55767
1.57547
1.59368
1.61232
1.6314
1.65094
1.67096
1.69147
1.71249
1.73404
1.75614
1.77881
1.80206
1.82594
1.85045
1.87564
1.90152
1.92813
1.95549
1.98363
2.01261
2.04244
2.07317
2.10484
2.13749
2.17116
2.20591
2.24179
2.27886
2.31716
2.35678
2.39776
2.4402
2.48417
2.52974
2.57701
2.62607
2.67703
2.73006
2.78567
1.40444
1.41853
1.43316
1.44821
1.46364
1.47941
1.49555
1.51205
1.52893
1.5462
1.56387
1.58195
1.60045
1.61939
1.63879
1.65866
1.67902
1.69989
1.72128
1.74322
1.76572
1.78881
1.81251
1.83684
1.86185
1.88754
1.91395
1.94111
1.96905
1.99781
2.02742
2.05793
2.08936
2.12177
2.1552
2.18969
2.22531
2.2621
2.30013
2.33945
2.38014
2.42228
2.46593
2.51117
2.55811
2.60681
2.65735
2.70974
2.76362
1.39836
1.41321
1.42813
1.44327
1.4587
1.47445
1.49055
1.50701
1.52384
1.54106
1.55867
1.57669
1.59514
1.61402
1.63336
1.65316
1.67346
1.69426
1.71558
1.73745
1.75987
1.78288
1.8065
1.83076
1.85568
1.88129
1.90761
1.93468
1.96253
1.99119
2.02071
2.05111
2.08245
2.11475
2.14806
2.18244
2.21794
2.25462
2.29252
2.33172
2.37228
2.41428
2.4578
2.50291
2.54971
2.5983
2.64877
2.70132
2.75653
1.38502
1.39878
1.41315
1.42797
1.44318
1.45875
1.47468
1.49096
1.50762
1.52466
1.5421
1.55993
1.57819
1.59687
1.61601
1.63561
1.65569
1.67627
1.69737
1.719
1.74119
1.76396
1.78733
1.81133
1.83598
1.86132
1.88736
1.91414
1.9417
1.97006
1.99926
2.02934
2.06034
2.0923
2.12526
2.15928
2.1944
2.23069
2.26819
2.30698
2.34711
2.38868
2.43174
2.4764
2.52273
2.57083
2.62077
2.67253
2.72561
1.38058
1.39534
1.41015
1.42517
1.44046
1.45607
1.472
1.48829
1.50493
1.52196
1.53937
1.55718
1.57541
1.59407
1.61318
1.63274
1.65279
1.67334
1.6944
1.716
1.73815
1.76088
1.78421
1.80816
1.83278
1.85807
1.88407
1.9108
1.9383
1.96661
1.99577
2.0258
2.05674
2.08865
2.12155
2.15551
2.19057
2.22679
2.26423
2.30295
2.34302
2.38452
2.42752
2.47212
2.5184
2.56649
2.61651
2.66871
2.7238
1.3611
1.375
1.38935
1.40408
1.41913
1.43452
1.45024
1.4663
1.48271
1.4995
1.51666
1.53422
1.55218
1.57057
1.5894
1.60868
1.62843
1.64868
1.66943
1.69071
1.71254
1.73493
1.75792
1.78152
1.80577
1.83069
1.85631
1.88265
1.90974
1.93764
1.96636
1.99595
2.02644
2.05787
2.09029
2.12375
2.15829
2.19398
2.23087
2.26902
2.3085
2.34938
2.39175
2.4357
2.48132
2.52872
2.578
2.62926
2.68227
1.36007
1.37437
1.38894
1.40379
1.41892
1.43435
1.45009
1.46617
1.4826
1.4994
1.51656
1.53412
1.55209
1.57048
1.5893
1.60859
1.62834
1.64858
1.66933
1.69061
1.71244
1.73483
1.75781
1.78142
1.80567
1.83058
1.8562
1.88254
1.90963
1.93752
1.96624
1.99583
2.02632
2.05775
2.09016
2.12362
2.15816
2.19384
2.23073
2.26887
2.30835
2.34923
2.39159
2.43553
2.48114
2.52854
2.57787
2.62935
2.68337
1.33498
1.34959
1.36415
1.37884
1.39375
1.40892
1.4244
1.44019
1.45633
1.47282
1.48968
1.50693
1.52458
1.54264
1.56113
1.58007
1.59947
1.61936
1.63974
1.66064
1.68208
1.70407
1.72665
1.74984
1.77365
1.79813
1.82329
1.84916
1.87578
1.90317
1.93138
1.96044
1.99039
2.02126
2.0531
2.08596
2.11989
2.15494
2.19116
2.22863
2.2674
2.30754
2.34914
2.39227
2.43703
2.48353
2.53191
2.58239
2.63563
1.33583
1.34909
1.36301
1.37738
1.39212
1.40719
1.4226
1.43835
1.45445
1.4709
1.48774
1.50495
1.52257
1.54061
1.55907
1.57798
1.59735
1.61721
1.63757
1.65844
1.67985
1.70181
1.72436
1.74751
1.7713
1.79574
1.82087
1.8467
1.87328
1.90064
1.92881
1.95783
1.98774
2.01857
2.05037
2.08318
2.11706
2.15206
2.18824
2.22564
2.26435
2.30443
2.34595
2.38899
2.43363
2.47996
2.52801
2.57771
2.62835
1.31186
1.32606
1.34019
1.35448
1.36901
1.38383
1.39896
1.41443
1.43024
1.44641
1.46295
1.47987
1.49719
1.51491
1.53306
1.55166
1.5707
1.59023
1.61024
1.63077
1.65181
1.67341
1.69558
1.71835
1.74174
1.76577
1.79048
1.81588
1.84202
1.86892
1.89662
1.92516
1.95456
1.98487
2.01614
2.04841
2.08172
2.11613
2.1517
2.18848
2.22653
2.26592
2.30673
2.34903
2.39289
2.43838
2.48561
2.53478
2.58664
1.30641
1.31919
1.33265
1.34658
1.36088
1.37554
1.39053
1.40587
1.42157
1.43762
1.45405
1.47086
1.48806
1.50567
1.52371
1.54219
1.56111
1.58052
1.60041
1.6208
1.64172
1.66319
1.68522
1.70785
1.73109
1.75498
1.77953
1.80478
1.83075
1.85749
1.88502
1.91338
1.94261
1.97274
2.00381
2.03588
2.06899
2.10319
2.13853
2.17508
2.2129
2.25204
2.29259
2.33461
2.37817
2.42334
2.47014
2.51849
2.56767
1.28652
1.30043
1.31424
1.32818
1.34236
1.35683
1.37161
1.38673
1.4022
1.41803
1.43422
1.45079
1.46775
1.48512
1.50291
1.52113
1.5398
1.55893
1.57855
1.59867
1.6193
1.64047
1.6622
1.68452
1.70745
1.73101
1.75522
1.78013
1.80575
1.83212
1.85927
1.88725
1.91607
1.94579
1.97644
2.00806
2.04072
2.07445
2.10931
2.14536
2.18266
2.22127
2.26127
2.30271
2.34569
2.39026
2.43653
2.48471
2.53566
1.27292
1.28522
1.29822
1.31172
1.32559
1.33982
1.3544
1.36931
1.38457
1.40019
1.41618
1.43254
1.44929
1.46643
1.484
1.50199
1.52042
1.53931
1.55868
1.57854
1.59891
1.61982
1.64128
1.66331
1.68595
1.70921
1.73312
1.75771
1.78301
1.80905
1.83586
1.86348
1.89194
1.92129
1.95155
1.98278
2.01502
2.04833
2.08275
2.11835
2.15518
2.19331
2.23281
2.27375
2.3162
2.36023
2.40588
2.45303
2.50092
1.25916
1.27274
1.28621
1.29982
1.31367
1.32782
1.34228
1.35707
1.37221
1.38769
1.40354
1.41975
1.43635
1.45335
1.47076
1.48858
1.50685
1.52558
1.54477
1.56446
1.58465
1.60536
1.62663
1.64847
1.6709
1.69396
1.71766
1.74203
1.7671
1.7929
1.81948
1.84685
1.87506
1.90414
1.93413
1.96508
1.99704
2.03005
2.06417
2.09945
2.13595
2.17376
2.21292
2.25352
2.29564
2.33938
2.38483
2.43224
2.48248
1.23521
1.24698
1.25954
1.27263
1.28611
1.29994
1.31411
1.3286
1.34343
1.3586
1.37413
1.39001
1.40627
1.42291
1.43996
1.45742
1.4753
1.49363
1.51243
1.5317
1.55147
1.57175
1.59257
1.61395
1.63592
1.65849
1.68169
1.70555
1.7301
1.75536
1.78138
1.80818
1.8358
1.86427
1.89363
1.92394
1.95522
1.98754
2.02095
2.05549
2.09124
2.12826
2.16662
2.2064
2.24769
2.29057
2.33512
2.38127
2.42822
1.22917
1.24245
1.25574
1.26919
1.28285
1.29677
1.31098
1.32549
1.34031
1.35547
1.37098
1.38683
1.40306
1.41967
1.43668
1.4541
1.47195
1.49024
1.50899
1.52822
1.54795
1.56818
1.58896
1.61029
1.6322
1.65472
1.67787
1.70168
1.72617
1.75138
1.77733
1.80407
1.83163
1.86003
1.88933
1.91956
1.95078
1.98303
2.01636
2.05083
2.0865
2.12344
2.16172
2.20142
2.24265
2.28553
2.33023
2.37717
2.4275
1.19218
1.20516
1.21817
1.2313
1.24462
1.25818
1.272
1.28611
1.30051
1.31524
1.33029
1.34568
1.36143
1.37755
1.39406
1.41097
1.42828
1.44603
1.46423
1.48289
1.50203
1.52167
1.54182
1.56252
1.58379
1.60564
1.6281
1.6512
1.67496
1.69942
1.72461
1.75056
1.77729
1.80486
1.83328
1.86262
1.89291
1.9242
1.95654
1.98999
2.0246
2.06044
2.09758
2.1361
2.17609
2.21765
2.26092
2.30607
2.35333
1.1936
1.20562
1.21818
1.23112
1.24435
1.25787
1.27167
1.28577
1.30017
1.31489
1.32993
1.34532
1.36107
1.37719
1.39369
1.41059
1.42791
1.44565
1.46384
1.4825
1.50163
1.52126
1.54141
1.56211
1.58337
1.60521
1.62767
1.65076
1.67452
1.69897
1.72415
1.75009
1.77682
1.80438
1.8328
1.86212
1.89241
1.92369
1.95602
1.98946
2.02405
2.05988
2.09699
2.13548
2.1754
2.21685
2.25988
2.30446
2.35015
1.15689
1.16974
1.1824
1.19512
1.20802
1.22115
1.23454
1.24821
1.26218
1.27646
1.29106
1.30599
1.32128
1.33692
1.35294
1.36935
1.38615
1.40338
1.42104
1.43915
1.45772
1.47678
1.49634
1.51643
1.53707
1.55827
1.58007
1.60249
1.62555
1.64929
1.67373
1.69891
1.72486
1.75161
1.7792
1.80767
1.83706
1.86743
1.89882
1.93127
1.96485
1.99962
2.03564
2.07297
2.11168
2.15184
2.19353
2.23694
2.28282
1.15113
1.16224
1.17405
1.18632
1.19894
1.21187
1.22509
1.23862
1.25245
1.2666
1.28108
1.29589
1.31105
1.32657
1.34246
1.35873
1.37541
1.3925
1.41002
1.42799
1.44642
1.46533
1.48474
1.50467
1.52514
1.54619
1.56782
1.59006
1.61294
1.6365
1.66075
1.68574
1.71148
1.73802
1.7654
1.79365
1.82282
1.85295
1.88409
1.91629
1.94961
1.9841
2.01983
2.05685
2.09523
2.135
2.17617
2.21858
2.2613
1.12337
1.13562
1.14772
1.1599
1.17229
1.18493
1.19784
1.21104
1.22455
1.23837
1.25251
1.26698
1.2818
1.29697
1.3125
1.32841
1.34471
1.36142
1.37855
1.39611
1.41413
1.43262
1.45159
1.47108
1.4911
1.51167
1.53282
1.55457
1.57694
1.59997
1.62368
1.64811
1.67328
1.69923
1.72599
1.75361
1.78213
1.81159
1.84203
1.87352
1.90609
1.93982
1.97475
2.01095
2.04848
2.08739
2.12777
2.16981
2.21437
1.10399
1.11446
1.12563
1.13727
1.14926
1.16157
1.17418
1.1871
1.20032
1.21386
1.22772
1.2419
1.25641
1.27128
1.2865
1.30209
1.31807
1.33445
1.35124
1.36846
1.38612
1.40424
1.42284
1.44194
1.46156
1.48173
1.50246
1.52377
1.5457
1.56827
1.59152
1.61546
1.64013
1.66557
1.6918
1.71887
1.74683
1.7757
1.80555
1.83641
1.86834
1.9014
1.93566
1.97116
2.00798
2.04616
2.08573
2.12656
2.1678
1.08775
1.09948
1.11108
1.12279
1.13472
1.14691
1.15938
1.17214
1.1852
1.19857
1.21225
1.22626
1.24059
1.25527
1.2703
1.2857
1.30148
1.31765
1.33423
1.35123
1.36867
1.38656
1.40493
1.42379
1.44316
1.46308
1.48354
1.50459
1.52624
1.54853
1.57148
1.59512
1.61949
1.6446
1.67051
1.69724
1.72484
1.75335
1.78282
1.8133
1.84484
1.87749
1.91133
1.94642
1.98284
2.02066
2.06
2.10111
2.14485
1.05293
1.06274
1.07331
1.08437
1.09581
1.10757
1.11963
1.13197
1.1446
1.15752
1.17075
1.18428
1.19813
1.21231
1.22683
1.24171
1.25695
1.27257
1.28858
1.305
1.32184
1.33912
1.35686
1.37507
1.39379
1.41302
1.43279
1.45311
1.47402
1.49555
1.51771
1.54055
1.56408
1.58833
1.61335
1.63917
1.66583
1.69336
1.72183
1.75126
1.78173
1.81327
1.84597
1.87989
1.9151
1.95171
1.98979
2.02933
2.06959
1.04928
1.06049
1.0718
1.08328
1.09496
1.10686
1.119
1.1314
1.14406
1.157
1.17024
1.18378
1.19763
1.21181
1.22633
1.2412
1.25644
1.27205
1.28806
1.30447
1.32131
1.33858
1.35631
1.37452
1.39323
1.41245
1.43221
1.45253
1.47343
1.49495
1.51711
1.53993
1.56345
1.5877
1.6127
1.63851
1.66516
1.69269
1.72114
1.75056
1.78101
1.81255
1.84524
1.87914
1.91436
1.95102
1.98932
2.02971
2.07351
0.997262
1.00889
1.02018
1.0314
1.04268
1.05411
1.06573
1.07757
1.08966
1.10201
1.11463
1.12753
1.14073
1.15424
1.16807
1.18224
1.19676
1.21164
1.22688
1.24251
1.25855
1.275
1.29189
1.30924
1.32705
1.34536
1.36418
1.38353
1.40344
1.42394
1.44505
1.46679
1.4892
1.51229
1.53611
1.5607
1.58608
1.6123
1.63939
1.66741
1.69642
1.72645
1.75757
1.78984
1.82334
1.85815
1.8944
1.93224
1.97207
1.0001
1.00996
1.02042
1.03125
1.04235
1.05369
1.06527
1.07709
1.08916
1.1015
1.11412
1.12701
1.1402
1.15371
1.16754
1.18171
1.19622
1.21108
1.22632
1.24194
1.25797
1.27442
1.29131
1.30864
1.32645
1.34474
1.36356
1.3829
1.40281
1.4233
1.44439
1.46612
1.48851
1.5116
1.53541
1.55999
1.58535
1.61155
1.63864
1.66665
1.69563
1.72563
1.75671
1.78893
1.82234
1.85698
1.89282
1.92965
1.96642
0.957937
0.968514
0.978948
0.989452
1.00012
1.01098
1.02206
1.03338
1.04494
1.05677
1.06886
1.08122
1.09387
1.10683
1.1201
1.13368
1.1476
1.16186
1.17648
1.19147
1.20685
1.22263
1.23882
1.25545
1.27253
1.29009
1.30814
1.3267
1.3458
1.36545
1.38569
1.40653
1.42802
1.45017
1.47301
1.49658
1.52091
1.54605
1.57203
1.5989
1.62669
1.65547
1.68528
1.71616
1.74817
1.78135
1.81573
1.85143
1.88916
0.94471
0.953761
0.963398
0.973426
0.98375
0.994333
1.00517
1.01627
1.02761
1.03922
1.05109
1.06324
1.07568
1.08842
1.10146
1.11481
1.12849
1.14251
1.15689
1.17163
1.18676
1.20227
1.21819
1.23454
1.25135
1.26861
1.28636
1.30461
1.32339
1.34271
1.36261
1.38312
1.40424
1.42602
1.44848
1.47166
1.49559
1.52031
1.54586
1.57227
1.59961
1.62791
1.65721
1.68758
1.71905
1.75166
1.7854
1.82014
1.85514
0.916361
0.926284
0.936093
0.945993
0.956063
0.966349
0.976865
0.987622
0.99863
1.00989
1.02142
1.03323
1.04531
1.05768
1.07034
1.08332
1.09661
1.11024
1.12421
1.13853
1.15322
1.1683
1.18377
1.19967
1.21599
1.23277
1.25001
1.26775
1.286
1.30478
1.32412
1.34404
1.36456
1.38573
1.40755
1.43008
1.45333
1.47735
1.50218
1.52786
1.55442
1.58192
1.61041
1.63994
1.67056
1.70233
1.73531
1.7697
1.80624
0.886225
0.894578
0.903506
0.912812
0.922414
0.932281
0.942395
0.952755
0.963362
0.974223
0.985343
0.996725
1.00837
1.0203
1.03251
1.04503
1.05786
1.071
1.08447
1.09829
1.11246
1.127
1.14193
1.15726
1.17301
1.18919
1.20583
1.22294
1.24054
1.25866
1.27731
1.29652
1.31633
1.33674
1.3578
1.37952
1.40196
1.42513
1.44908
1.47385
1.49949
1.52603
1.55353
1.58204
1.61162
1.64233
1.67421
1.70721
1.7407
0.872506
0.881785
0.891045
0.900427
0.909997
0.919776
0.929778
0.940013
0.950488
0.961212
0.972187
0.983416
0.994909
1.00668
1.01874
1.03109
1.04374
1.0567
1.07
1.08363
1.09762
1.11196
1.12669
1.14182
1.15735
1.17332
1.18973
1.20661
1.22398
1.24185
1.26026
1.27922