/*--------------------------------*- C++ -*----------------------------------*\
  =========                 |
  \\      /  F ield         | OpenFOAM: The Open Source CFD Toolbox
   \\    /   O peration     | Website:  https://openfoam.org
    \\  /    A nd           | Version:  6
     \\/     M anipulation  |
\*---------------------------------------------------------------------------*/
FoamFile
{
    version     2.0;
    format      ascii;
    class       volScalarField;
    location    "120";
    object      gradTy;
}
// * * * * * * * * * * * * * * * * * * * * * * * * * * * * * * * * * * * * * //

dimensions      [0 -1 0 1 0 0 0];

internalField   nonuniform List<scalar> 
13524
(
6.98088
7.06224
7.14122
7.21978
7.29878
7.37876
7.46012
7.54301
7.62762
7.71406
7.8024
7.89273
7.98513
8.07969
8.17652
8.2757
8.37732
8.48144
8.58817
8.69761
8.80986
8.92503
9.04325
9.16466
9.28938
9.41754
9.54927
9.68473
9.82411
9.96757
10.1153
10.2675
10.4244
10.586
10.7528
10.9248
11.1025
11.2861
11.4757
11.6719
11.8749
12.0851
12.3029
12.5288
12.7633
13.007
13.2607
13.5257
13.8045
7.00067
7.06968
7.14294
7.21878
7.29645
7.37584
7.45688
7.53962
7.62414
7.7105
7.79879
7.88909
7.98144
8.07595
8.17274
8.27189
8.37347
8.47754
8.58422
8.69359
8.80578
8.9209
9.03908
9.16044
9.28509
9.41318
9.54485
9.68025
9.81958
9.963
10.1107
10.2628
10.4196
10.5811
10.7478
10.9198
11.0974
11.2809
11.4704
11.6665
11.8693
12.0794
12.297
12.5225
12.7564
12.9988
13.2497
13.5076
13.7649
6.70554
6.77958
6.85267
6.92617
7.0008
7.07684
7.15439
7.2336
7.31455
7.39734
7.48199
7.56855
7.65709
7.74776
7.84063
7.93576
8.03318
8.13298
8.23531
8.34025
8.4479
8.55836
8.67173
8.78815
8.90773
9.0306
9.15693
9.28686
9.42055
9.55813
9.69979
9.84571
9.99609
10.1511
10.311
10.476
10.6464
10.8223
11.0042
11.1923
11.3869
11.5883
11.7969
12.0131
12.2372
12.4695
12.7101
12.9601
13.2241
6.61298
6.67634
6.74381
6.81398
6.88627
6.96037
7.03622
7.11386
7.1933
7.27457
7.35768
7.4427
7.52975
7.61891
7.71022
7.80371
7.89947
7.99761
8.09824
8.20145
8.30731
8.41592
8.52739
8.64185
8.75944
8.88029
9.00453
9.1323
9.26373
9.39901
9.53831
9.68182
9.8297
9.98216
10.1394
10.3016
10.4691
10.6422
10.821
11.0059
11.1973
11.3953
11.6005
11.8131
12.0334
12.2617
12.4978
12.741
12.986
6.41455
6.48402
6.55267
6.62196
6.69246
6.76443
6.83805
6.91337
6.99043
7.06928
7.14996
7.23256
7.31715
7.40375
7.49242
7.58323
7.67627
7.77166
7.86946
7.96975
8.0726
8.17812
8.28643
8.39767
8.51197
8.62942
8.75014
8.87428
9.002
9.13346
9.26884
9.40829
9.552
9.70013
9.85292
10.0106
10.1734
10.3415
10.5153
10.695
10.881
11.0735
11.2729
11.4796
11.694
11.9163
12.1472
12.3879
12.6437
6.20356
6.26204
6.3245
6.38966
6.45687
6.52593
6.59675
6.66927
6.74352
6.81954
6.89736
6.97703
7.0586
7.14212
7.22763
7.31522
7.40499
7.49701
7.59135
7.68808
7.78727
7.88906
7.99355
8.10088
8.21113
8.32441
8.44085
8.5606
8.68382
8.81064
8.94123
9.07574
9.21436
9.35727
9.50466
9.65675
9.81379
9.97601
10.1437
10.3171
10.4965
10.6822
10.8747
11.0743
11.2814
11.4964
11.7195
11.9505
12.1849
6.10756
6.17247
6.23731
6.30301
6.36998
6.43845
6.50847
6.58012
6.65344
6.72849
6.80532
6.88394
6.96441
7.04679
7.13116
7.21761
7.3062
7.39698
7.49003
7.58544
7.68332
7.78376
7.88688
7.99276
8.10152
8.21328
8.32818
8.44634
8.56791
8.69304
8.82187
8.95459
9.09136
9.23236
9.37778
9.52784
9.68278
9.84285
10.0083
10.1794
10.3564
10.5398
10.7298
10.9269
11.1316
11.3444
11.5662
11.7988
12.0481
5.77406
5.83136
5.89108
5.95266
6.01591
6.08069
6.14697
6.21478
6.28415
6.35514
6.42777
6.50206
6.57808
6.65592
6.73566
6.81733
6.901
6.98673
7.07462
7.16476
7.25723
7.3521
7.44948
7.54947
7.6522
7.75777
7.8663
7.97791
8.09273
8.21091
8.3326
8.45796
8.58715
8.72033
8.85768
8.99942
9.14578
9.29698
9.45326
9.61487
9.78213
9.95535
10.1349
10.3211
10.5146
10.7157
10.9252
11.1433
11.3681
5.76359
5.82307
5.88425
5.9469
6.01086
6.07611
6.14272
6.21076
6.28029
6.35137
6.42402
6.49832
6.57436
6.65222
6.73193
6.81355
6.89716
6.98285
7.07071
7.16082
7.25323
7.34804
7.44537
7.54532
7.648
7.75352
7.86199
7.97353
8.08829
8.2064
8.32803
8.45333
8.58244
8.71554
8.85282
8.99449
9.14077
9.29189
9.44807
9.6096
9.77676
9.94987
10.1293
10.3153
10.5085
10.7095
10.9189
11.1385
11.3725
5.36038
5.42249
5.48288
5.54301
5.60356
5.66493
5.72737
5.79102
5.85599
5.92234
5.99014
6.05948
6.13043
6.20304
6.27738
6.35349
6.43147
6.5114
6.59334
6.67736
6.76352
6.85193
6.9427
7.03591
7.13166
7.23005
7.3312
7.43521
7.54222
7.65236
7.76577
7.8826
8.003
8.12711
8.25513
8.38724
8.52364
8.66454
8.81017
8.96079
9.11663
9.27799
9.44518
9.6185
9.79831
9.98497
10.1789
10.3807
10.5919
5.34414
5.39749
5.45374
5.51178
5.57119
5.63187
5.69378
5.75698
5.82152
5.88746
5.95488
6.02382
6.09434
6.16651
6.2404
6.31607
6.3936
6.47305
6.5545
6.63801
6.72367
6.81157
6.9018
6.99445
7.08964
7.18745
7.288
7.3914
7.49778
7.60727
7.72002
7.83617
7.95586
8.07924
8.2065
8.33783
8.47343
8.6135
8.75828
8.90799
9.06288
9.22324
9.38933
9.56145
9.73983
9.92465
10.1158
10.3121
10.5087
5.02724
5.08237
5.13706
5.1922
5.2482
5.30524
5.36343
5.42284
5.48354
5.54558
5.60903
5.67392
5.74031
5.80827
5.87785
5.94912
6.02213
6.09696
6.17367
6.25233
6.33302
6.41581
6.5008
6.58807
6.67772
6.76986
6.86457
6.96196
7.06216
7.16529
7.27148
7.38089
7.49363
7.60985
7.72972
7.85342
7.98114
8.11308
8.24945
8.39046
8.53634
8.68735
8.84375
9.00579
9.17367
9.34763
9.52786
9.71499
9.91236
4.89785
4.9456
4.996
5.04823
5.10192
5.1569
5.21316
5.27069
5.32954
5.38975
5.45134
5.51434
5.57882
5.64483
5.71243
5.78168
5.85262
5.92533
5.99988
6.07633
6.15474
6.2352
6.31778
6.40259
6.48972
6.57926
6.67131
6.76596
6.86333
6.96356
7.06678
7.1731
7.28267
7.39562
7.51212
7.63235
7.75648
7.88472
8.01726
8.1543
8.29609
8.44288
8.5949
8.75241
8.91563
9.08476
9.25985
9.44041
9.62338
4.67926
4.72947
4.77942
4.82997
4.88141
4.93393
4.98762
5.04252
5.09872
5.15622
5.21506
5.27526
5.3369
5.40001
5.46466
5.53088
5.59873
5.66827
5.73958
5.81271
5.88771
5.96468
6.04368
6.12482
6.20817
6.29383
6.38188
6.47242
6.56557
6.66146
6.76019
6.86191
6.96672
7.07477
7.18622
7.30124
7.42
7.54269
7.66949
7.80061
7.93629
8.07676
8.22228
8.37309
8.52949
8.69175
8.86026
9.03591
9.22208
4.44017
4.48305
4.52826
4.57509
4.62327
4.67269
4.72332
4.77519
4.82829
4.88266
4.9383
4.99527
5.0536
5.11335
5.17454
5.23723
5.30147
5.36732
5.43484
5.50409
5.57511
5.64798
5.72279
5.79962
5.87854
5.95965
6.04302
6.12876
6.21696
6.30776
6.40125
6.49756
6.59682
6.69914
6.80468
6.9136
7.02607
7.14225
7.26234
7.38654
7.51506
7.64815
7.78607
7.92907
8.07745
8.23151
8.39149
8.55721
8.72632
4.31655
4.36199
4.40743
4.45353
4.50059
4.54872
4.59799
4.64845
4.70011
4.753
4.80715
4.86259
4.91937
4.97752
5.03708
5.0981
5.16063
5.22472
5.29044
5.35784
5.42698
5.49791
5.57073
5.64552
5.72235
5.8013
5.88246
5.96593
6.05179
6.14018
6.23119
6.32495
6.42157
6.52119
6.62393
6.72997
6.83945
6.95257
7.06949
7.19042
7.31558
7.44521
7.57957
7.71897
7.86372
8.01425
8.17107
8.33519
8.50962
3.97366
4.01153
4.05157
4.09319
4.13613
4.18025
4.2255
4.27186
4.31934
4.36795
4.41773
4.4687
4.52088
4.57432
4.62906
4.68515
4.74261
4.80152
4.86192
4.92387
4.9874
5.0526
5.11952
5.18825
5.25886
5.33142
5.40601
5.48271
5.56162
5.64285
5.7265
5.81267
5.90147
5.99302
6.08746
6.18491
6.28554
6.38951
6.49698
6.60814
6.7232
6.84238
6.96595
7.09419
7.22744
7.36609
7.5106
7.66124
7.81668
3.93735
3.9776
4.01881
4.06098
4.10414
4.14828
4.19342
4.23961
4.28686
4.33522
4.38471
4.43535
4.48719
4.54027
4.59463
4.65031
4.70736
4.76584
4.8258
4.88729
4.95036
5.01507
5.0815
5.14971
5.2198
5.29182
5.36585
5.44199
5.52032
5.60095
5.68398
5.76951
5.85765
5.94853
6.04226
6.139
6.23888
6.34208
6.44875
6.55909
6.6733
6.7916
6.91426
7.04155
7.17382
7.31153
7.45536
7.60673
7.76971
3.5015
3.53986
3.57802
3.61648
3.65549
3.6952
3.73568
3.77702
3.81927
3.86246
3.90662
3.9518
3.99802
4.04534
4.0938
4.14344
4.19429
4.2464
4.29983
4.35462
4.41082
4.46848
4.52767
4.58846
4.65091
4.71508
4.78105
4.84888
4.91867
4.99051
5.06449
5.14071
5.21924
5.30021
5.38373
5.46992
5.55892
5.65087
5.74591
5.84421
5.94595
6.05133
6.16057
6.27389
6.39156
6.51389
6.64117
6.77361
6.91056
3.50219
3.53821
3.57554
3.6138
3.65285
3.69267
3.73328
3.77474
3.81708
3.86034
3.90455
3.94976
3.99601
4.04335
4.09182
4.14146
4.1923
4.24441
4.29783
4.35261
4.40879
4.46642
4.52559
4.58635
4.64878
4.71292
4.77886
4.84667
4.91643
4.98823
5.06218
5.13835
5.21685
5.29778
5.38125
5.46739
5.55634
5.64823
5.74321
5.84144
5.94309
6.04835
6.15742
6.27051
6.38783
6.50958
6.63592
6.76684
6.90181
3.08188
3.11627
3.15036
3.18465
3.21937
3.25465
3.29057
3.3272
3.36459
3.40277
3.44179
3.48169
3.5225
3.56426
3.60701
3.65077
3.69561
3.74155
3.78865
3.83695
3.88648
3.93729
3.98946
4.04302
4.09805
4.1546
4.21273
4.27251
4.334
4.3973
4.46248
4.52963
4.59883
4.67016
4.74374
4.81967
4.89807
4.97906
5.06276
5.14932
5.23888
5.3316
5.42764
5.52716
5.63031
5.73723
5.84802
5.96279
6.08219
3.03333
3.06446
3.09672
3.12982
3.16365
3.19818
3.23341
3.26937
3.3061
3.34362
3.38197
3.42118
3.46129
3.50233
3.54434
3.58736
3.63143
3.67658
3.72287
3.77033
3.81901
3.86894
3.9202
3.97285
4.02692
4.08249
4.13961
4.19835
4.25878
4.32098
4.38503
4.45101
4.51901
4.5891
4.66139
4.736
4.81302
4.89259
4.97482
5.05985
5.14782
5.23887
5.33317
5.43085
5.53205
5.63688
5.74532
5.85706
5.97053
2.67785
2.70649
2.73537
2.76468
2.79454
2.82499
2.85606
2.8878
2.92021
2.95334
2.98721
3.02184
3.05727
3.09352
3.13063
3.16863
3.20756
3.24744
3.28833
3.33026
3.37326
3.41737
3.46265
3.50915
3.55692
3.606
3.65646
3.70834
3.76172
3.81666
3.87324
3.93151
3.99157
4.05347
4.11733
4.18322
4.25124
4.32151
4.39413
4.46921
4.54689
4.62728
4.71052
4.79675
4.88608
4.97865
5.07459
5.17424
5.27887
2.55925
2.58521
2.61209
2.63971
2.668
2.69692
2.72648
2.7567
2.78759
2.81918
2.85148
2.88451
2.91831
2.9529
2.98832
3.02459
3.06174
3.09981
3.13884
3.17886
3.2199
3.26201
3.30523
3.34962
3.39521
3.44207
3.49023
3.53976
3.5907
3.64315
3.69715
3.75278
3.8101
3.86919
3.93014
3.99303
4.05796
4.12503
4.19435
4.26601
4.34014
4.41688
4.49634
4.57866
4.66396
4.7524
4.84407
4.93896
5.03636
2.26061
2.28432
2.30834
2.33281
2.35779
2.3833
2.40937
2.43602
2.46328
2.49116
2.51967
2.54884
2.57868
2.60924
2.64052
2.67256
2.70538
2.73902
2.7735
2.80886
2.84513
2.88233
2.92052
2.95974
3.00003
3.04143
3.08398
3.12774
3.17276
3.2191
3.26682
3.31597
3.36662
3.41883
3.47269
3.52826
3.58563
3.6449
3.70614
3.76947
3.83498
3.90279
3.97302
4.04579
4.12124
4.19953
4.28084
4.36554
4.4547
2.08531
2.10649
2.12831
2.1507
2.17361
2.19704
2.22101
2.24553
2.27062
2.29628
2.32253
2.34939
2.37688
2.40503
2.43385
2.46337
2.49362
2.52461
2.55639
2.58898
2.6224
2.65669
2.69189
2.72804
2.76518
2.80334
2.84256
2.88289
2.92439
2.9671
3.01108
3.05639
3.10307
3.1512
3.20084
3.25206
3.30495
3.35958
3.41603
3.47441
3.53481
3.59733
3.6621
3.72924
3.79888
3.87116
3.94622
4.02414
4.10453
1.83064
1.84956
1.86884
1.8885
1.9086
1.92915
1.95016
1.97166
1.99365
2.01615
2.03918
2.06274
2.08686
2.11156
2.13685
2.16276
2.18931
2.21652
2.24441
2.27302
2.30236
2.33246
2.36337
2.3951
2.4277
2.4612
2.49564
2.53105
2.56749
2.60499
2.6436
2.68338
2.72437
2.76662
2.81021
2.85518
2.90162
2.94959
2.99916
3.05043
3.10348
3.1584
3.21531
3.27432
3.33556
3.39915
3.4653
3.53428
3.60686
1.61347
1.62995
1.64682
1.66408
1.68175
1.69982
1.71831
1.73722
1.75656
1.77636
1.79663
1.81737
1.8386
1.86035
1.88262
1.90543
1.92881
1.95278
1.97735
2.00254
2.02839
2.05491
2.08213
2.11009
2.13881
2.16833
2.19867
2.22987
2.26197
2.295
2.32903
2.36407
2.40019
2.43742
2.47582
2.51545
2.55637
2.59864
2.64233
2.68751
2.73427
2.78269
2.83288
2.88493
2.93895
2.99508
3.05344
3.11412
3.1769
1.38873
1.40289
1.41739
1.43223
1.44741
1.46295
1.47883
1.49508
1.5117
1.52873
1.54615
1.56398
1.58224
1.60094
1.62009
1.63972
1.65982
1.68044
1.70158
1.72326
1.74549
1.76831
1.79173
1.81579
1.8405
1.8659
1.89201
1.91886
1.94648
1.97492
2.0042
2.03436
2.06544
2.09748
2.13053
2.16464
2.19986
2.23624
2.27385
2.31275
2.35301
2.39471
2.43794
2.48279
2.52935
2.57776
2.62813
2.68069
2.73591
1.1454
1.15719
1.16919
1.18145
1.19397
1.20676
1.21984
1.23322
1.24692
1.26095
1.2753
1.29
1.30504
1.32045
1.33624
1.35242
1.369
1.38599
1.40342
1.42129
1.43963
1.45844
1.47776
1.4976
1.51798
1.53893
1.56046
1.5826
1.60539
1.62884
1.65299
1.67786
1.7035
1.72993
1.75719
1.78533
1.81438
1.8444
1.87543
1.90753
1.94075
1.97518
2.01086
2.0479
2.08636
2.12636
2.16797
2.21128
2.25617
0.935805
0.945191
0.954882
0.964821
0.975002
0.985418
0.996076
1.00699
1.01817
1.02961
1.04133
1.05332
1.0656
1.07817
1.09106
1.10426
1.11779
1.13166
1.14589
1.16048
1.17545
1.1908
1.20657
1.22277
1.23941
1.25651
1.27409
1.29216
1.31076
1.32991
1.34963
1.36994
1.39087
1.41245
1.43471
1.45768
1.48141
1.50592
1.53127
1.55748
1.58463
1.61275
1.64192
1.67219
1.70364
1.73636
1.77044
1.80602
1.8434
0.682594
0.689684
0.696827
0.704085
0.711498
0.719081
0.726851
0.734809
0.742954
0.75129
0.759826
0.76857
0.777526
0.786701
0.796099
0.805728
0.815599
0.825718
0.836095
0.846738
0.857655
0.868859
0.880361
0.892175
0.904312
0.916786
0.929609
0.942796
0.956364
0.970331
0.984715
0.999534
1.01481
1.03055
1.04679
1.06356
1.08087
1.09876
1.11726
1.1364
1.15621
1.17675
1.19805
1.22016
1.24315
1.26708
1.29201
1.31802
1.34504
0.472957
0.477436
0.482166
0.48709
0.492169
0.497393
0.502757
0.50825
0.513873
0.519634
0.525536
0.531583
0.537777
0.544121
0.550622
0.557283
0.564111
0.571111
0.578288
0.585649
0.5932
0.600949
0.608904
0.617074
0.625468
0.634093
0.642961
0.65208
0.661462
0.671121
0.681068
0.691316
0.701877
0.712766
0.724
0.735596
0.747572
0.759948
0.772746
0.785987
0.799698
0.813908
0.82865
0.843959
0.859877
0.876459
0.893773
0.911948
0.931268
0.226316
0.228665
0.231011
0.233405
0.235853
0.238365
0.240931
0.243554
0.246242
0.249001
0.251829
0.254725
0.25769
0.260728
0.263843
0.267035
0.270307
0.273662
0.277101
0.280629
0.284249
0.287963
0.291776
0.29569
0.299712
0.303845
0.308093
0.312462
0.316957
0.321584
0.326349
0.331259
0.336319
0.341537
0.346921
0.352478
0.358218
0.36415
0.370284
0.376632
0.383205
0.390019
0.397089
0.404432
0.41207
0.420029
0.428341
0.437043
0.446129
-5.06855e-06
-1.01532e-05
-4.68254e-06
1.16533e-06
8.83057e-06
1.19118e-05
6.515e-06
2.50206e-06
3.40979e-06
5.82773e-06
6.24634e-06
4.48668e-06
2.75718e-06
2.65584e-06
3.82327e-06
4.99869e-06
5.71125e-06
6.44959e-06
7.71027e-06
9.50033e-06
1.13501e-05
1.27066e-05
1.32974e-05
1.32587e-05
1.28018e-05
1.20273e-05
1.09641e-05
9.59516e-06
7.96909e-06
6.30981e-06
4.83155e-06
3.82684e-06
3.36244e-06
3.21863e-06
3.47804e-06
3.96459e-06
4.63999e-06
5.61917e-06
6.68272e-06
7.65904e-06
8.57677e-06
9.68905e-06
1.03741e-05
1.02626e-05
1.03442e-05
9.39046e-06
1.11431e-05
8.00513e-06
6.03985e-06
-0.226318
-0.22867
-0.231014
-0.233401
-0.235843
-0.238351
-0.240919
-0.243544
-0.246232
-0.248989
-0.251815
-0.254711
-0.257677
-0.260715
-0.263828
-0.267019
-0.270289
-0.273643
-0.277081
-0.280608
-0.284226
-0.287939
-0.291752
-0.295668
-0.299692
-0.303826
-0.308077
-0.312448
-0.316946
-0.321576
-0.326345
-0.331257
-0.33632
-0.341539
-0.346923
-0.35248
-0.358219
-0.36415
-0.370283
-0.376629
-0.3832
-0.390012
-0.397081
-0.404424
-0.412062
-0.420022
-0.428335
-0.43704
-0.446128
-0.472938
-0.477406
-0.482143
-0.487072
-0.49216
-0.497387
-0.50274
-0.508224
-0.513847
-0.519609
-0.525511
-0.531554
-0.537744
-0.544086
-0.550586
-0.557246
-0.564073
-0.571072
-0.578249
-0.585611
-0.593163
-0.600914
-0.608871
-0.617043
-0.625439
-0.634067
-0.642938
-0.65206
-0.661446
-0.671108
-0.681058
-0.691308
-0.701871
-0.712762
-0.723997
-0.735593
-0.747569
-0.759944
-0.772741
-0.785981
-0.799691
-0.813902
-0.828643
-0.84395
-0.859868
-0.876449
-0.893768
-0.91194
-0.931259
-0.682588
-0.689667
-0.696812
-0.704081
-0.711505
-0.71909
-0.726851
-0.7348
-0.742943
-0.751281
-0.759817
-0.768557
-0.777509
-0.786681
-0.796079
-0.805709
-0.815579
-0.825698
-0.836076
-0.84672
-0.85764
-0.868846
-0.88035
-0.892165
-0.904304
-0.916779
-0.929604
-0.942793
-0.956362
-0.97033
-0.984714
-0.999533
-1.0148
-1.03055
-1.04679
-1.06356
-1.08087
-1.09876
-1.11726
-1.1364
-1.15622
-1.17675
-1.19806
-1.22017
-1.24316
-1.26709
-1.29202
-1.31802
-1.34504
-0.935812
-0.945202
-0.954888
-0.964828
-0.975005
-0.98542
-0.996085
-1.007
-1.01818
-1.02962
-1.04133
-1.05332
-1.0656
-1.07818
-1.09107
-1.10427
-1.1178
-1.13168
-1.1459
-1.16049
-1.17546
-1.19082
-1.20659
-1.22278
-1.23942
-1.25652
-1.2741
-1.29217
-1.31077
-1.32991
-1.34962
-1.36993
-1.39086
-1.41244
-1.4347
-1.45767
-1.4814
-1.50591
-1.53126
-1.55748
-1.58462
-1.61275
-1.64191
-1.67218
-1.70364
-1.73636
-1.77043
-1.80602
-1.84339
-1.14542
-1.15722
-1.16922
-1.18146
-1.19397
-1.20676
-1.21985
-1.23324
-1.24695
-1.26097
-1.27533
-1.29003
-1.30508
-1.32049
-1.33628
-1.35246
-1.36904
-1.38604
-1.40347
-1.42134
-1.43968
-1.45849
-1.47781
-1.49764
-1.51802
-1.53896
-1.56049
-1.58263
-1.60541
-1.62885
-1.653
-1.67787
-1.7035
-1.72993
-1.75719
-1.78533
-1.81438
-1.8444
-1.87543
-1.90753
-1.94076
-1.97518
-2.01087
-2.0479
-2.08637
-2.12636
-2.16797
-2.21128
-2.25617
-1.38872
-1.40289
-1.41739
-1.43223
-1.44741
-1.46294
-1.47883
-1.49509
-1.51172
-1.52874
-1.54617
-1.56401
-1.58227
-1.60097
-1.62013
-1.63975
-1.65986
-1.68048
-1.70162
-1.72329
-1.74553
-1.76834
-1.79176
-1.81582
-1.84053
-1.86592
-1.89203
-1.91887
-1.94649
-1.97492
-2.00419
-2.03435
-2.06543
-2.09747
-2.13052
-2.16463
-2.19985
-2.23623
-2.27384
-2.31274
-2.353
-2.39471
-2.43794
-2.48278
-2.52935
-2.57775
-2.62813
-2.68069
-2.73591
-1.61346
-1.62993
-1.64681
-1.66408
-1.68175
-1.69983
-1.71831
-1.73722
-1.75657
-1.77637
-1.79664
-1.81738
-1.83861
-1.86036
-1.88263
-1.90545
-1.92882
-1.95279
-1.97736
-2.00255
-2.0284
-2.05492
-2.08214
-2.11009
-2.13881
-2.16833
-2.19866
-2.22986
-2.26196
-2.29499
-2.32901
-2.36406
-2.40017
-2.4374
-2.47581
-2.51543
-2.55635
-2.59862
-2.64231
-2.6875
-2.73426
-2.78268
-2.83287
-2.88492
-2.93895
-2.99508
-3.05344
-3.11412
-3.1769
-1.83064
-1.84956
-1.86883
-1.8885
-1.9086
-1.92915
-1.95016
-1.97165
-1.99364
-2.01614
-2.03917
-2.06273
-2.08684
-2.11154
-2.13683
-2.16274
-2.18928
-2.21649
-2.24438
-2.27299
-2.30233
-2.33243
-2.36333
-2.39506
-2.42767
-2.46117
-2.4956
-2.53102
-2.56745
-2.60495
-2.64356
-2.68334
-2.72433
-2.76659
-2.81017
-2.85515
-2.90158
-2.94955
-2.99913
-3.0504
-3.10345
-3.15838
-3.21529
-3.2743
-3.33553
-3.39913
-3.46528
-3.53427
-3.60685
-2.08532
-2.1065
-2.12832
-2.1507
-2.1736
-2.19704
-2.22101
-2.24552
-2.2706
-2.29626
-2.32251
-2.34937
-2.37686
-2.405
-2.43382
-2.46334
-2.49358
-2.52458
-2.55636
-2.58894
-2.62236
-2.65666
-2.69185
-2.728
-2.76513
-2.80329
-2.84252
-2.88285
-2.92435
-2.96706
-3.01104
-3.05635
-3.10304
-3.15116
-3.2008
-3.25203
-3.30491
-3.35954
-3.416
-3.47438
-3.53478
-3.59731
-3.66208
-3.72922
-3.79886
-3.87114
-3.9462
-4.02414
-4.10453
-2.26061
-2.28432
-2.30834
-2.3328
-2.35777
-2.38328
-2.40935
-2.436
-2.46326
-2.49113
-2.51964
-2.54881
-2.57865
-2.60921
-2.64049
-2.67252
-2.70534
-2.73898
-2.77346
-2.80882
-2.84508
-2.88228
-2.92047
-2.95969
-2.99998
-3.04138
-3.08394
-3.1277
-3.17272
-3.21906
-3.26678
-3.31594
-3.36659
-3.4188
-3.47265
-3.52822
-3.5856
-3.64486
-3.70611
-3.76943
-3.83494
-3.90275
-3.97298
-4.04576
-4.12122
-4.1995
-4.28081
-4.36552
-4.45468
-2.55925
-2.58521
-2.61209
-2.63971
-2.66799
-2.69691
-2.72648
-2.75669
-2.78758
-2.81917
-2.85146
-2.8845
-2.91829
-2.95288
-2.9883
-3.02456
-3.06172
-3.09979
-3.13882
-3.17883
-3.21987
-3.26198
-3.3052
-3.34959
-3.39519
-3.44204
-3.4902
-3.53973
-3.59068
-3.64313
-3.69713
-3.75276
-3.81008
-3.86918
-3.93013
-3.99302
-4.05795
-4.12502
-4.19434
-4.266
-4.34014
-4.41687
-4.49633
-4.57864
-4.66395
-4.75239
-4.84406
-4.93895
-5.03636
-2.67783
-2.70647
-2.73535
-2.76467
-2.79453
-2.82498
-2.85605
-2.88778
-2.9202
-2.95333
-2.9872
-3.02183
-3.05725
-3.0935
-3.13061
-3.16861
-3.20754
-3.24743
-3.28832
-3.33024
-3.37324
-3.41735
-3.46263
-3.50913
-3.5569
-3.60598
-3.65644
-3.70832
-3.7617
-3.81664
-3.87322
-3.9315
-3.99155
-4.05346
-4.11732
-4.18321
-4.25124
-4.32151
-4.39413
-4.46921
-4.54688
-4.62728
-4.71052
-4.79674
-4.88607
-4.97864
-5.07458
-5.17422
-5.27886
-3.03333
-3.06445
-3.09671
-3.12982
-3.16365
-3.19817
-3.2334
-3.26936
-3.30609
-3.34362
-3.38197
-3.42117
-3.46128
-3.50232
-3.54434
-3.58736
-3.63142
-3.67658
-3.72287
-3.77033
-3.819
-3.86894
-3.92021
-3.97285
-4.02692
-4.08249
-4.13962
-4.19836
-4.25879
-4.32099
-4.38504
-4.45102
-4.51901
-4.58911
-4.6614
-4.73601
-4.81304
-4.8926
-4.97484
-5.05986
-5.14783
-5.23889
-5.33318
-5.43086
-5.53206
-5.63689
-5.74532
-5.85706
-5.97053
-3.0819
-3.11629
-3.15038
-3.18467
-3.21938
-3.25465
-3.29057
-3.3272
-3.36459
-3.40278
-3.4418
-3.48169
-3.5225
-3.56426
-3.607
-3.65077
-3.69561
-3.74156
-3.78866
-3.83695
-3.88648
-3.9373
-3.98947
-4.04303
-4.09807
-4.15462
-4.21274
-4.27252
-4.33402
-4.39732
-4.4625
-4.52965
-4.59885
-4.67018
-4.74376
-4.81969
-4.89809
-4.97908
-5.06278
-5.14934
-5.2389
-5.33162
-5.42766
-5.52717
-5.63032
-5.73724
-5.84802
-5.96279
-6.08219
-3.50218
-3.53822
-3.57555
-3.61381
-3.65286
-3.69268
-3.7333
-3.77475
-3.81709
-3.86035
-3.90456
-3.94978
-3.99603
-4.04338
-4.09184
-4.14148
-4.19232
-4.24444
-4.29786
-4.35263
-4.40882
-4.46646
-4.52563
-4.58639
-4.64882
-4.71296
-4.7789
-4.84671
-4.91647
-4.98828
-5.06222
-5.1384
-5.21689
-5.29782
-5.38129
-5.46743
-5.55638
-5.64827
-5.74324
-5.84147
-5.94312
-6.04838
-6.15745
-6.27053
-6.38785
-6.50959
-6.63593
-6.76684
-6.90181
-3.50149
-3.53986
-3.57801
-3.61647
-3.65549
-3.6952
-3.73569
-3.77703
-3.81927
-3.86246
-3.90663
-3.95181
-3.99804
-4.04537
-4.09383
-4.14346
-4.19431
-4.24643
-4.29987
-4.35466
-4.41086
-4.46853
-4.52772
-4.58851
-4.65095
-4.71513
-4.7811
-4.84894
-4.91873
-4.99057
-5.06455
-5.14076
-5.21929
-5.30026
-5.38377
-5.46996
-5.55895
-5.65089
-5.74593
-5.84423
-5.94597
-6.05135
-6.16058
-6.2739
-6.39158
-6.5139
-6.64118
-6.77361
-6.91056
-3.93734
-3.9776
-4.01881
-4.06099
-4.10414
-4.14828
-4.19343
-4.23962
-4.28688
-4.33524
-4.38473
-4.43537
-4.4872
-4.54028
-4.59464
-4.65033
-4.70738
-4.76586
-4.82582
-4.88731
-4.95038
-5.01509
-5.08152
-5.14974
-5.21983
-5.29185
-5.36589
-5.44202
-5.52035
-5.60097
-5.684
-5.76953
-5.85767
-5.94854
-6.04227
-6.139
-6.23888
-6.34207
-6.44875
-6.55908
-6.67329
-6.79159
-6.91425
-7.04154
-7.17381
-7.31152
-7.45535
-7.60673
-7.76971
-3.97367
-4.01153
-4.05157
-4.0932
-4.13613
-4.18025
-4.2255
-4.27186
-4.31935
-4.36797
-4.41775
-4.46871
-4.52089
-4.57434
-4.62908
-4.68516
-4.74263
-4.80153
-4.86193
-4.92387
-4.9874
-5.05259
-5.11952
-5.18824
-5.25885
-5.33141
-5.40599
-5.4827
-5.56161
-5.64284
-5.72648
-5.81265
-5.90145
-5.993
-6.08742
-6.18488
-6.2855
-6.38947
-6.49694
-6.6081
-6.72316
-6.84235
-6.96592
-7.09417
-7.22742
-7.36608
-7.51059
-7.66124
-7.81668
-4.31654
-4.36199
-4.40743
-4.45353
-4.50059
-4.54872
-4.59798
-4.64843
-4.70009
-4.75298
-4.80713
-4.86257
-4.91934
-4.97749
-5.03704
-5.09806
-5.16059
-5.22468
-5.2904
-5.35779
-5.42692
-5.49785
-5.57067
-5.64545
-5.72228
-5.80124
-5.88239
-5.96585
-6.05172
-6.1401
-6.23112
-6.32488
-6.4215
-6.52111
-6.62385
-6.72988
-6.83937
-6.95248
-7.06941
-7.19034
-7.3155
-7.44513
-7.57951
-7.71891
-7.86368
-8.01421
-8.17104
-8.33516
-8.50961
-4.44016
-4.48305
-4.52824
-4.57507
-4.62325
-4.67268
-4.72332
-4.77517
-4.82827
-4.88263
-4.93828
-4.99525
-5.05358
-5.11332
-5.17451
-5.23719
-5.30143
-5.36727
-5.43478
-5.50402
-5.57503
-5.6479
-5.72271
-5.79953
-5.87845
-5.95955
-6.04293
-6.12866
-6.21687
-6.30766
-6.40116
-6.49748
-6.59673
-6.69905
-6.8046
-6.91352
-7.02598
-7.14216
-7.26226
-7.38645
-7.51498
-7.64808
-7.786
-7.92901
-8.0774
-8.23147
-8.39146
-8.55719
-8.72631
-4.67926
-4.72947
-4.77943
-4.82996
-4.8814
-4.93392
-4.98761
-5.04252
-5.09871
-5.1562
-5.21503
-5.27524
-5.33688
-5.4
-5.46464
-5.53085
-5.5987
-5.66825
-5.73955
-5.81267
-5.88767
-5.96463
-6.04363
-6.12476
-6.20811
-6.29376
-6.38181
-6.47235
-6.5655
-6.66138
-6.76012
-6.86184
-6.96665
-7.07471
-7.18616
-7.30118
-7.41994
-7.54262
-7.66943
-7.80055
-7.93623
-8.0767
-8.22222
-8.37305
-8.52944
-8.69171
-8.86023
-9.03589
-9.22206
-4.89785
-4.94559
-4.996
-5.04823
-5.10191
-5.1569
-5.21316
-5.2707
-5.32955
-5.38975
-5.45133
-5.51433
-5.57881
-5.64483
-5.71243
-5.78167
-5.85261
-5.92532
-5.99987
-6.07631
-6.15472
-6.23517
-6.31776
-6.40256
-6.48969
-6.57923
-6.67127
-6.76592
-6.86329
-6.96352
-7.06674
-7.17306
-7.28263
-7.39558
-7.51208
-7.63231
-7.75644
-7.88468
-8.01721
-8.15425
-8.29604
-8.44282
-8.59485
-8.75235
-8.91558
-9.08472
-9.25981
-9.44038
-9.62336
-5.02726
-5.08237
-5.13705
-5.1922
-5.24819
-5.30523
-5.36342
-5.42283
-5.48354
-5.54559
-5.60904
-5.67393
-5.74033
-5.80829
-5.87787
-5.94914
-6.02215
-6.09698
-6.17369
-6.25236
-6.33304
-6.41583
-6.50081
-6.58808
-6.67773
-6.76987
-6.86457
-6.96196
-7.06215
-7.16529
-7.27149
-7.38089
-7.49363
-7.60985
-7.72973
-7.85343
-7.98116
-8.1131
-8.24946
-8.39046
-8.53634
-8.68735
-8.84375
-9.00577
-9.17366
-9.34762
-9.52785
-9.71499
-9.91236
-5.34416
-5.39752
-5.45375
-5.51178
-5.5712
-5.63187
-5.69378
-5.75697
-5.82151
-5.88746
-5.95487
-6.02381
-6.09433
-6.1665
-6.2404
-6.31607
-6.3936
-6.47305
-6.5545
-6.63802
-6.72369
-6.81158
-6.9018
-6.99446
-7.08964
-7.18746
-7.28801
-7.3914
-7.49778
-7.60727
-7.72002
-7.83617
-7.95586
-8.07925
-8.20651
-8.33784
-8.47344
-8.61352
-8.75829
-8.908
-9.06288
-9.22324
-9.38933
-9.56144
-9.73982
-9.92463
-10.1158
-10.3121
-10.5086
-5.36038
-5.42251
-5.48291
-5.54302
-5.60358
-5.66496
-5.72739
-5.79104
-5.85599
-5.92235
-5.99017
-6.05951
-6.13045
-6.20306
-6.27739
-6.35352
-6.4315
-6.51143
-6.59336
-6.67738
-6.76356
-6.85198
-6.94273
-7.03594
-7.13169
-7.23008
-7.33123
-7.43524
-7.54224
-7.65238
-7.7658
-7.88264
-8.00303
-8.12715
-8.25517
-8.38728
-8.52368
-8.66459
-8.81023
-8.96083
-9.11667
-9.27803
-9.44521
-9.61852
-9.79833
-9.98498
-10.1789
-10.3807
-10.5919
-5.76359
-5.82306
-5.88428
-5.94691
-6.01086
-6.07613
-6.14274
-6.21078
-6.2803
-6.35136
-6.42402
-6.49834
-6.57439
-6.65224
-6.73194
-6.81356
-6.89719
-6.9829
-7.07076
-7.16087
-7.25328
-7.3481
-7.44543
-7.54538
-7.64806
-7.75359
-7.86205
-7.97359
-8.08834
-8.20646
-8.32809
-8.45338
-8.5825
-8.7156
-8.85289
-8.99456
-9.14084
-9.29195
-9.44815
-9.60967
-9.77682
-9.94992
-10.1293
-10.3154
-10.5086
-10.7095
-10.9189
-11.1385
-11.3725
-5.77407
-5.83135
-5.89106
-5.95267
-6.01591
-6.08069
-6.14698
-6.2148
-6.28417
-6.35515
-6.42776
-6.50206
-6.5781
-6.65595
-6.73568
-6.81733
-6.901
-6.98674
-7.07466
-7.1648
-7.25727
-7.35214
-7.44952
-7.54953
-7.65227
-7.75784
-7.86637
-7.97797
-8.09278
-8.21097
-8.33266
-8.45803
-8.58721
-8.72038
-8.85774
-8.9995
-9.14586
-9.29705
-9.45333
-9.61495
-9.7822
-9.95542
-10.1349
-10.3212
-10.5146
-10.7157
-10.9252
-11.1433
-11.3681
-6.10756
-6.17249
-6.23731
-6.303
-6.36998
-6.43844
-6.50846
-6.58011
-6.65344
-6.72849
-6.8053
-6.88391
-6.96438
-7.04678
-7.13116
-7.2176
-7.30617
-7.39694
-7.49001
-7.58545
-7.68334
-7.78378
-7.88688
-7.99276
-8.10153
-8.21331
-8.32821
-8.44636
-8.56791
-8.69303
-8.82187
-8.95459
-9.09136
-9.23235
-9.37777
-9.52784
-9.68279
-9.84286
-10.0083
-10.1794
-10.3565
-10.5398
-10.7299
-10.9269
-11.1316
-11.3444
-11.5662
-11.7988
-12.0481
-6.20357
-6.26206
-6.32453
-6.38968
-6.45691
-6.52596
-6.59676
-6.66929
-6.74355
-6.81957
-6.89739
-6.97704
-7.05858
-7.14209
-7.22761
-7.31521
-7.40497
-7.49698
-7.5913
-7.68803
-7.78725
-7.88904
-7.99354
-8.10085
-8.21109
-8.32438
-8.44083
-8.56058
-8.68378
-8.81059
-8.94117
-9.07569
-9.2143
-9.3572
-9.50459
-9.65669
-9.81372
-9.97595
-10.1436
-10.317
-10.4964
-10.6822
-10.8747
-11.0743
-11.2814
-11.4963
-11.7195
-11.9504
-12.1849
-6.41454
-6.48401
-6.55268
-6.62197
-6.69247
-6.76446
-6.83807
-6.91337
-6.99043
-7.06929
-7.14999
-7.23259
-7.31714
-7.40372
-7.49238
-7.5832
-7.67626
-7.77164
-7.86942
-7.9697
-8.07255
-8.17808
-8.2864
-8.39764
-8.51193
-8.62937
-8.75008
-8.87422
-9.00193
-9.13339
-9.26875
-9.4082
-9.55188
-9.70001
-9.8528
-10.0105
-10.1733
-10.3414
-10.5152
-10.6949
-10.8809
-11.0734
-11.2729
-11.4796
-11.6939
-11.9162
-12.1471
-12.3879
-12.6436
-6.61297
-6.67633
-6.74381
-6.814
-6.88627
-6.96037
-7.03624
-7.11387
-7.19328
-7.27453
-7.35766
-7.44271
-7.52977
-7.61889
-7.71015
-7.80363
-7.8994
-7.99756
-8.0982
-8.20139
-8.30724
-8.41583
-8.52731
-8.64179
-8.75939
-8.88025
-9.00448
-9.13222
-9.26364
-9.39892
-9.53822
-9.68172
-9.82959
-9.98203
-10.1393
-10.3015
-10.469
-10.6421
-10.8209
-11.0058
-11.1972
-11.3953
-11.6004
-11.813
-12.0333
-12.2616
-12.4978
-12.7409
-12.986
-6.70554
-6.77957
-6.85264
-6.92618
-7.00082
-7.07685
-7.15442
-7.23364
-7.31459
-7.39736
-7.48198
-7.56855
-7.65712
-7.74779
-7.84063
-7.93571
-8.03311
-8.13294
-8.23528
-8.34023
-8.44787
-8.55831
-8.67167
-8.78809
-8.90769
-9.03059
-9.15692
-9.28683
-9.42048
-9.55804
-9.6997
-9.84563
-9.996
-10.151
-10.3109
-10.4759
-10.6463
-10.8222
-11.0041
-11.1922
-11.3868
-11.5882
-11.7969
-12.0131
-12.2371
-12.4694
-12.71
-12.96
-13.224
-7.00069
-7.06969
-7.14293
-7.21875
-7.29646
-7.37587
-7.45692
-7.53966
-7.62418
-7.71054
-7.79883
-7.88911
-7.98147
-8.07601
-8.17279
-8.27191
-8.37345
-8.47752
-8.5842
-8.6936
-8.8058
-8.92092
-9.03908
-9.16043
-9.2851
-9.41321
-9.54489
-9.6803
-9.81961
-9.96301
-10.1107
-10.2628
-10.4195
-10.5811
-10.7478
-10.9198
-11.0973
-11.2808
-11.4704
-11.6664
-11.8693
-12.0794
-12.297
-12.5225
-12.7563
-12.9987
-13.2496
-13.5074
-13.7648
-6.98086
-7.06225
-7.14125
-7.21976
-7.29876
-7.37878
-7.46014
-7.54304
-7.62766
-7.71409
-7.80242
-7.89275
-7.98516
-8.07974
-8.17657
-8.27573
-8.37731
-8.48143
-8.58816
-8.69761
-8.80986
-8.92504
-9.04326
-9.16466
-9.28939
-9.41755
-9.5493
-9.68477
-9.82415
-9.96761
-10.1153
-10.2675
-10.4243
-10.586
-10.7527
-10.9248
-11.1025
-11.286
-11.4757
-11.6719
-11.8749
-12.0851
-12.3029
-12.5288
-12.7633
-13.007
-13.2607
-13.5256
-13.8044
7.34494
7.4234
7.50264
7.583
7.66473
7.74801
7.83297
7.91973
8.00839
8.09901
8.19166
8.28644
8.38342
8.48268
8.58431
8.68841
8.79506
8.90437
9.01643
9.13132
9.24916
9.37007
9.49419
9.62165
9.75258
9.88713
10.0254
10.1677
10.314
10.4646
10.6197
10.7795
10.9441
11.1139
11.2889
11.4696
11.6561
11.8488
12.048
12.2539
12.4671
12.6878
12.9166
13.154
13.4005
13.6571
13.9253
14.208
14.5146
7.37046
7.43914
7.51314
7.59061
7.6707
7.75302
7.83739
7.92375
8.01216
8.10264
8.19522
8.28993
8.38686
8.48613
8.58781