/*--------------------------------*- C++ -*----------------------------------*\
  =========                 |
  \\      /  F ield         | OpenFOAM: The Open Source CFD Toolbox
   \\    /   O peration     | Website:  https://openfoam.org
    \\  /    A nd           | Version:  6
     \\/     M anipulation  |
\*---------------------------------------------------------------------------*/
FoamFile
{
    version     2.0;
    format      ascii;
    class       volScalarField;
    location    "120";
    object      gradTx;
}
// * * * * * * * * * * * * * * * * * * * * * * * * * * * * * * * * * * * * * //

dimensions      [0 -1 0 1 0 0 0];

internalField   nonuniform List<scalar> 
13524
(
7.34497
7.42338
7.50257
7.583
7.66476
7.74802
7.83299
7.91973
8.00837
8.099
8.19165
8.28643
8.3834
8.48265
8.58428
8.6884
8.79507
8.90438
9.01643
9.13132
9.24916
9.37007
9.49419
9.62165
9.75259
9.88714
10.0254
10.1677
10.314
10.4646
10.6197
10.7795
10.9442
11.1139
11.2889
11.4696
11.6562
11.8488
12.048
12.2539
12.4671
12.6878
12.9166
13.154
13.4005
13.6572
13.9253
14.2081
14.5147
7.37047
7.43916
7.51315
7.59062
7.6707
7.753
7.83737
7.92375
8.01218
8.10266
8.19523
8.28995
8.38691
8.48617
8.58781
8.69193
8.79862
8.90796
9.02006
9.13499
9.25287
9.37383
9.498
9.62551
9.75649
9.8911
10.0295
10.1718
10.3181
10.4688
10.624
10.7838
10.9485
11.1183
11.2935
11.4742
11.6608
11.8536
12.0528
12.2588
12.4721
12.6929
12.9218
13.1592
13.4057
13.6619
13.9286
14.2054
14.4872
7.61426
7.69636
7.77754
7.85952
7.94302
8.02835
8.11563
8.20494
8.29636
8.38995
8.48574
8.58375
8.68407
8.78683
8.89209
8.9999
9.11034
9.22352
9.33956
9.45857
9.58064
9.70589
9.83446
9.96647
10.1021
10.2414
10.3847
10.532
10.6836
10.8397
11.0003
11.1658
11.3363
11.5121
11.6935
11.8806
12.0738
12.2734
12.4797
12.693
12.9138
13.1424
13.3793
13.6249
13.8798
14.1446
14.42
14.7078
15.0141
7.72791
7.80122
7.87941
7.96083
8.04478
8.13095
8.21924
8.30967
8.40224
8.497
8.59398
8.69322
8.79481
8.89887
9.00545
9.11463
9.22648
9.34111
9.45863
9.57914
9.70276
9.82961
9.95981
10.0935
10.2309
10.372
10.5171
10.6663
10.8198
10.9778
11.1405
11.3081
11.4809
11.6589
11.8426
12.0321
12.2277
12.4299
12.6388
12.8548
13.0783
13.3097
13.5495
13.7981
14.0558
14.3231
14.6001
14.886
15.1747
7.86363
7.94939
8.03403
8.11933
8.20602
8.29446
8.38484
8.47728
8.57183
8.66857
8.76755
8.86886
8.97258
9.07875
9.18747
9.29883
9.41294
9.52991
9.64983
9.77279
9.8989
10.0283
10.1611
10.2975
10.4376
10.5817
10.7297
10.8819
11.0385
11.1997
11.3657
11.5367
11.7129
11.8945
12.0819
12.2752
12.4749
12.6811
12.8942
13.1145
13.3426
13.5786
13.8231
14.0766
14.3393
14.6117
14.8944
15.1887
15.5006
8.05787
8.13566
8.21835
8.30425
8.39257
8.48306
8.57565
8.67033
8.76717
8.86621
8.96753
9.07119
9.17731
9.28596
9.3972
9.51112
9.62784
9.74747
9.87014
9.99592
10.1249
10.2573
10.3932
10.5327
10.676
10.8232
10.9746
11.1304
11.2906
11.4555
11.6252
11.8001
11.9804
12.1661
12.3578
12.5555
12.7597
12.9706
13.1886
13.414
13.6472
13.8886
14.1387
14.3979
14.6665
14.945
15.2332
15.5301
15.8291
8.0982
8.18813
8.27678
8.36585
8.45614
8.54804
8.64176
8.73745
8.83523
8.9352
9.03743
9.14197
9.24893
9.35843
9.47056
9.58542
9.70309
9.82367
9.94727
10.074
10.204
10.3374
10.4744
10.615
10.7595
10.9079
11.0605
11.2174
11.3788
11.545
11.7161
11.8924
12.074
12.2613
12.4544
12.6537
12.8595
13.072
13.2917
13.5189
13.754
13.9973
14.2494
14.5107
14.7817
15.0628
15.3547
15.6586
15.9798
8.35518
8.43933
8.52728
8.6178
8.71045
8.80508
8.90169
9.00034
9.10113
9.20417
9.30953
9.41728
9.5275
9.64031
9.75583
9.87414
9.99536
10.1196
10.2469
10.3775
10.5115
10.6489
10.7899
10.9348
11.0836
11.2365
11.3937
11.5554
11.7217
11.8929
12.0691
12.2507
12.4378
12.6307
12.8296
13.0349
13.2469
13.4659
13.6922
13.9262
14.1684
14.4192
14.679
14.9484
15.2278
15.5179
15.8191
16.1312
16.4511
8.34523
8.43614
8.52713
8.61907
8.71236
8.80727
8.90401
9.00274
9.1036
9.20667
9.31201
9.41975
9.53001
9.64289
9.75845
9.87678
9.998
10.1222
10.2496
10.3802
10.5142
10.6517
10.7928
10.9377
11.0866
11.2395
11.3967
11.5584
11.7248
11.896
12.0723
12.254
12.4411
12.6341
12.8331
13.0384
13.2505
13.4695
13.6959
13.93
14.1723
14.4232
14.6831
14.9528
15.2327
15.5236
15.8264
16.1425
16.4733
8.60422
8.69717
8.7902
8.88431
8.97995
9.0774
9.17683
9.27839
9.38219
9.48832
9.59683
9.70782
9.8214
9.93768
10.0567
10.1787
10.3036
10.4317
10.563
10.6976
10.8356
10.9773
11.1227
11.272
11.4254
11.5831
11.7451
11.9118
12.0832
12.2596
12.4413
12.6285
12.8214
13.0203
13.2253
13.437
13.6555
13.8812
14.1146
14.3558
14.6055
14.8641
15.1321
15.41
15.6986
15.9987
16.3117
16.6402
16.9925
8.64639
8.72885
8.81679
8.90837
9.00274
9.09958
9.19874
9.30021
9.404
9.5102
9.61887
9.73008
9.84389
9.96039
10.0797
10.2019
10.3271
10.4554
10.587
10.7219
10.8603
11.0023
11.148
11.2977
11.4514
11.6094
11.7718
11.9389
12.1107
12.2876
12.4697
12.6573
12.8506
13.0499
13.2554
13.4676
13.6866
13.9128
14.1467
14.3885
14.6387
14.8979
15.1664
15.4448
15.7338
16.034
16.3459
16.6689
16.9976
8.81413
8.90916
9.00345
9.09871
9.19568
9.2947
9.39593
9.49949
9.60544
9.71383
9.82474
9.93824
10.0544
10.1734
10.2953
10.4201
10.548
10.679
10.8134
10.9512
11.0925
11.2375
11.3864
11.5393
11.6963
11.8577
12.0236
12.1942
12.3697
12.5503
12.7363
12.928
13.1254
13.329
13.5389
13.7556
13.9793
14.2104
14.4492
14.6962
14.9517
15.2163
15.4905
15.7747
16.0696
16.3757
16.6938
17.0257
17.3774
8.9104
8.9965
9.08755
9.18201
9.27917
9.37877
9.48075
9.58512
9.69197
9.80135
9.91326
10.0278
10.145
10.265
10.3879
10.5139
10.6429
10.7751
10.9107
11.0498
11.1924
11.3387
11.4889
11.6431
11.8016
11.9645
12.1318
12.304
12.4811
12.6633
12.851
13.0443
13.2436
13.449
13.6608
13.8794
14.1051
14.3383
14.5793
14.8284
15.0863
15.3532
15.6297
15.9163
16.2134
16.5217
16.8412
17.1712
17.5065
9.00565
9.103
9.19962
9.29721
9.39649
9.4978
9.60131
9.70714
9.81539
9.92616
10.0395
10.1555
10.2743
10.3959
10.5204
10.6479
10.7786
10.9125
11.0498
11.1906
11.3351
11.4833
11.6354
11.7916
11.9521
12.117
12.2865
12.4609
12.6402
12.8248
13.0149
13.2107
13.4125
13.6205
13.835
14.0564
14.285
14.5211
14.7652
15.0175
15.2786
15.5489
15.8289
16.119
16.4198
16.7318
17.0557
17.393
17.7496
9.14489
9.23434
9.32855
9.42603
9.52616
9.62873
9.7337
9.84111
9.95099
10.0634
10.1783
10.296
10.4164
10.5397
10.6659
10.7953
10.9278
11.0636
11.2028
11.3456
11.492
11.6422
11.7965
11.9549
12.1176
12.2848
12.4567
12.6334
12.8152
13.0024
13.1951
13.3936
13.5982
13.8091
14.0266
14.2511
14.4829
14.7223
14.9697
15.2255
15.4903
15.7643
16.0482
16.3423
16.6472
16.9634
17.291
17.6294
17.9737
9.183
9.28238
9.38135
9.48137
9.58309
9.68682
9.79272
9.90096
10.0116
10.1248
10.2406
10.3591
10.4803
10.6044
10.7314
10.8616
10.9949
11.1316
11.2717
11.4153
11.5627
11.7139
11.869
12.0284
12.1921
12.3604
12.5333
12.7111
12.8941
13.0824
13.2763
13.476
13.6819
13.8941
14.1129
14.3388
14.572
14.8129
15.0619
15.3193
15.5857
15.8615
16.1471
16.4432
16.7502
17.0687
17.3993
17.7434
18.1064
9.35082
9.44366
9.54106
9.64165
9.74482
9.85037
9.95825
10.0685
10.1811
10.2963
10.4141
10.5347
10.658
10.7842
10.9135
11.0459
11.1815
11.3205
11.463
11.6091
11.7589
11.9127
12.0705
12.2326
12.3991
12.5702
12.7461
12.9269
13.113
13.3045
13.5017
13.7048
13.9142
14.13
14.3526
14.5822
14.8194
15.0644
15.3176
15.5795
15.8504
16.131
16.4216
16.7229
17.0354
17.3597
17.6961
18.044
18.3984
9.34482
9.44713
9.54907
9.65189
9.75623
9.86243
9.97075
10.0813
10.1943
10.3098
10.4278
10.5485
10.6721
10.7985
10.9279
11.0605
11.1963
11.3355
11.4782
11.6245
11.7746
11.9285
12.0866
12.2489
12.4156
12.5869
12.763
12.9441
13.1304
13.3222
13.5197
13.7231
13.9327
14.1488
14.3717
14.6017
14.8392
15.0846
15.3381
15.6004
15.8718
16.1528
16.444
16.7459
17.0592
17.3847
17.7233
18.0767
18.4494
9.52047
9.62057
9.72258
9.82653
9.93246
10.0405
10.1507
10.2632
10.3782
10.4958
10.6159
10.7389
10.8646
10.9933
11.1251
11.2601
11.3984
11.5401
11.6853
11.8343
11.9871
12.1438
12.3047
12.47
12.6397
12.8141
12.9934
13.1778
13.3675
13.5627
13.7637
13.9708
14.1842
14.4043
14.6312
14.8653
15.1071
15.3569
15.6151
15.8821
16.1584
16.4446
16.7411
17.0487
17.368
17.6997
18.0451
18.4055
18.7836
9.52771
9.62501
9.72546
9.8285
9.93389
10.0416
10.1516
10.2641
10.379
10.4965
10.6166
10.7395
10.8653
10.994
11.1258
11.2608
11.399
11.5407
11.686
11.835
11.9878
12.1445
12.3054
12.4707
12.6404
12.8148
12.9942
13.1785
13.3682
13.5635
13.7645
13.9717
14.1851
14.4051
14.6321
14.8663
15.1081
15.3579
15.6161
15.8831
16.1595
16.4457
16.7423
17.0499
17.3692
17.701
18.046
18.4048
18.7759
9.66402
9.76735
9.87105
9.97619
10.0832
10.1924
10.304
10.418
10.5345
10.6537
10.7756
10.9003
11.0279
11.1585
11.2922
11.4292
11.5695
11.7133
11.8608
12.012
12.167
12.3261
12.4894
12.6572
12.8294
13.0065
13.1885
13.3756
13.5681
13.7663
13.9704
14.1806
14.3972
14.6205
14.8509
15.0886
15.334
15.5876
15.8497
16.1207
16.4012
16.6916
16.9927
17.3048
17.6288
17.9654
18.3156
18.681
19.0666
9.69508
9.7914
9.89199
9.99577
10.1022
10.2112
10.3227
10.4367
10.5533
10.6726
10.7947
10.9195
11.0473
11.1781
11.3121
11.4492
11.5898
11.7339
11.8815
12.033
12.1883
12.3477
12.5113
12.6793
12.8519
13.0292
13.2115
13.399
13.5919
13.7904
13.9948
14.2054
14.4224
14.6461
14.8769
15.115
15.3608
15.6148
15.8774
16.1489
16.4298
16.7207
17.0222
17.3348
17.6591
17.9958
18.3454
18.7077
19.0793
9.78851
9.89248
9.9969
10.1029
10.2109
10.3212
10.4339
10.5491
10.6669
10.7874
10.9107
11.0368
11.1659
11.2981
11.4335
11.5721
11.7142
11.8598
12.009
12.1621
12.3191
12.4802
12.6455
12.8153
12.9898
13.169
13.3533
13.5427
13.7377
13.9383
14.145
14.3578
14.5771
14.8032
15.0364
15.2771
15.5256
15.7823
16.0476
16.322
16.606
16.9
17.2046
17.5204
17.848
18.1881
18.5414
18.9092
19.2957
9.8311
9.92973
10.0321
10.1375
10.2454
10.3559
10.4688
10.5844
10.7025
10.8234
10.9471
11.0736
11.2031
11.3358
11.4715
11.6106
11.7531
11.8992
12.049
12.2025
12.36
12.5216
12.6875
12.8579
13.0329
13.2128
13.3976
13.5877
13.7833
13.9846
14.1919
14.4055
14.6255
14.8524
15.0864
15.3279
15.5772
15.8347
16.1009
16.3762
16.661
16.9559
17.2615
17.5782
17.9068
18.2477
18.6015
18.9682
19.3453
9.89476
9.9994
10.1048
10.212
10.3211
10.4326
10.5465
10.6629
10.7819
10.9037
11.0283
11.1557
11.2862
11.4198
11.5566
11.6967
11.8403
11.9874
12.1383
12.293
12.4516
12.6144
12.7815
12.9532
13.1295
13.3106
13.4969
13.6884
13.8854
14.0882
14.2971
14.5122
14.7339
14.9624
15.1981
15.4414
15.6925
15.952
16.2201
16.4974
16.7843
17.0814
17.3892
17.7082
18.0391
18.3825
18.7392
19.1104
19.4997
9.94086
10.0415
10.1456
10.2524
10.3617
10.4735
10.5878
10.7046
10.8242
10.9464
11.0715
11.1995
11.3304
11.4645
11.6019
11.7425
11.8866
12.0344
12.1858
12.3411
12.5004
12.6638
12.8316
13.0039
13.1809
13.3628
13.5498
13.742
13.9398
14.1434
14.3531
14.569
14.7916
15.021
15.2577
15.5019
15.754
16.0144
16.2836
16.562
16.85
17.1482
17.4572
17.7774
18.1095
18.4542
18.812
19.1831
19.5661
9.98387
10.0889
10.1952
10.3032
10.4134
10.5259
10.6409
10.7584
10.8785
11.0014
11.1271
11.2558
11.3874
11.5222
11.6602
11.8016
11.9464
12.0949
12.2471
12.4032
12.5633
12.7275
12.8961
13.0693
13.2472
13.43
13.6179
13.8111
14.0099
14.2145
14.4252
14.6423
14.8659
15.0965
15.3344
15.5798
15.8332
16.0949
16.3655
16.6452
16.9347
17.2344
17.5449
17.8667
18.2006
18.5471
18.907
19.2815
19.6734
10.0261
10.1286
10.234
10.3419
10.4524
10.5653
10.6806
10.7986
10.9192
11.0426
11.1688
11.2979
11.4301
11.5653
11.7039
11.8458
11.9912
12.1402
12.293
12.4497
12.6104
12.7752
12.9445
13.1183
13.2968
13.4803
13.6689
13.8629
14.0624
14.2678
14.4793
14.6972
14.9217
15.1531
15.3918
15.6382
15.8925
16.1553
16.4268
16.7076
16.9982
17.299
17.6107
17.9338
18.2689
18.6167
18.9778
19.3528
19.741
10.0553
10.1604
10.2672
10.376
10.487
10.6004
10.7162
10.8346
10.9556
11.0794
11.2061
11.3357
11.4683
11.604
11.743
11.8854
12.0313
12.1808
12.3341
12.4913
12.6526
12.818
12.9878
13.1622
13.3414
13.5255
13.7147
13.9093
14.1095
14.3156
14.5278
14.7464
14.9716
15.2039
15.4434
15.6906
15.9457
16.2094
16.4818
16.7636
17.0551
17.357
17.6697
17.9939
18.3302
18.6793
19.042
19.4192
19.813
10.0881
10.192
10.2985
10.4074
10.5187
10.6323
10.7485
10.8673
10.9887
11.1129
11.24
11.37
11.503
11.6392
11.7786
11.9215
12.0678
12.2178
12.3715
12.5292
12.691
12.8569
13.0272
13.2021
13.3818
13.5665
13.7563
13.9515
14.1523
14.359
14.5719
14.7912
15.0171
15.25
15.4903
15.7382
15.9942
16.2586
16.5319
16.8145
17.107
17.4098
17.7235
18.0487
18.3861
18.7364
19.1001
19.4781
19.8705
10.1079
10.2129
10.32
10.4293
10.5409
10.6548
10.7713
10.8904
11.0121
11.1366
11.2639
11.3942
11.5275
11.664
11.8038
11.9469
12.0936
12.2439
12.398
12.556
12.7181
12.8844
13.0551
13.2304
13.4105
13.5955
13.7858
13.9814
14.1826
14.3898
14.6031
14.8228
15.0492
15.2827
15.5234
15.7719
16.0284
16.2934
16.5673
16.8506
17.1437
17.4471
17.7616
18.0876
18.4257
18.7768
19.1415
19.5207
19.9155
10.1278
10.233
10.3403
10.4498
10.5616
10.6759
10.7926
10.9119
11.0339
11.1587
11.2863
11.4168
11.5504
11.6872
11.8272
11.9707
12.1176
12.2682
12.4227
12.581
12.7434
12.91
13.0811
13.2567
13.4372
13.6226
13.8132
14.0092
14.2109
14.4184
14.6322
14.8523
15.0792
15.3131
15.5544
15.8033
16.0604
16.3259
16.6004
16.8842
17.1779
17.482
17.7971
18.1238
18.4627
18.8146
19.1802
19.5602
19.9559
10.1405
10.2452
10.3523
10.4619
10.5738
10.6882
10.8052
10.9246
11.0468
11.1717
11.2995
11.4302
11.5639
11.7009
11.8411
11.9847
12.1319
12.2827
12.4373
12.5958
12.7584
12.9252
13.0965
13.2723
13.453
13.6386
13.8295
14.0257
14.2276
14.4354
14.6494
14.8698
15.097
15.3311
15.5727
15.8219
16.0793
16.3452
16.62
16.9041
17.1982
17.5027
17.8182
18.1453
18.4847
18.8371
19.2031
19.5836
19.9786
10.1458
10.2521
10.3601
10.4701
10.5824
10.697
10.814
10.9336
11.0558
11.1809
11.3088
11.4396
11.5735
11.7106
11.8509
11.9946
12.1419
12.2928
12.4476
12.6062
12.769
12.9359
13.1073
13.2833
13.4641
13.6499
13.8409
14.0373
14.2394
14.4474
14.6615
14.8822
15.1095
15.3439
15.5856
15.8351
16.0926
16.3587
16.6338
16.9182
17.2125
17.5173
17.8331
18.1605
18.5002
18.853
19.2196
19.6012
19.9998
10.1517
10.2561
10.3632
10.4729
10.5851
10.6996
10.8166
10.9362
11.0586
11.1836
11.3116
11.4424
11.5763
11.7134
11.8538
11.9976
12.1449
12.2959
12.4506
12.6093
12.7721
12.9391
13.1105
13.2866
13.4674
13.6533
13.8443
14.0408
14.2429
14.4509
14.6652
14.8858
15.1132
15.3477
15.5895
15.839
16.0966
16.3628
16.6379
16.9224
17.2168
17.5216
17.8375
18.165
18.5048
18.8577
19.2243
19.6052
20.0002
10.1457
10.2521
10.3601
10.4702
10.5824
10.6969
10.814
10.9336
11.0559
11.1809
11.3088
11.4396
11.5735
11.7106
11.8509
11.9946
12.1419
12.2928
12.4476
12.6062
12.769
12.9359
13.1073
13.2833
13.4641
13.6499
13.8409
14.0373
14.2394
14.4474
14.6615
14.8822
15.1095
15.3439
15.5856
15.8351
16.0926
16.3587
16.6338
16.9182
17.2125
17.5173
17.8331
18.1605
18.5002
18.853
19.2196
19.6011
19.9998
10.1405
10.2452
10.3523
10.4619
10.5739
10.6882
10.8051
10.9246
11.0468
11.1717
11.2995
11.4302
11.5639
11.7009
11.8411
11.9847
12.1319
12.2827
12.4373
12.5958
12.7584
12.9252
13.0965
13.2723
13.453
13.6386
13.8295
14.0257
14.2276
14.4354
14.6494
14.8698
15.097
15.3311
15.5727
15.8219
16.0793
16.3452
16.62
16.9041
17.1982
17.5027
17.8182
18.1453
18.4847
18.8371
19.2031
19.5836
19.9786
10.1278
10.233
10.3403
10.4498
10.5616
10.6759
10.7926
10.9119
11.0339
11.1587
11.2863
11.4168
11.5504
11.6872
11.8272
11.9707
12.1176
12.2682
12.4227
12.581
12.7434
12.91
13.0811
13.2567
13.4372
13.6226
13.8132
14.0092
14.2109
14.4184
14.6322
14.8523
15.0792
15.3131
15.5544
15.8033
16.0604
16.3259
16.6004
16.8842
17.1779
17.482
17.7971
18.1238
18.4627
18.8146
19.1802
19.5602
19.9559
10.1079
10.2129
10.32
10.4293
10.5409
10.6549
10.7713
10.8904
11.0121
11.1366
11.2639
11.3942
11.5275
11.664
11.8038
11.9469
12.0936
12.2439
12.398
12.556
12.7181
12.8844
13.0551
13.2304
13.4105
13.5955
13.7857
13.9814
14.1826
14.3897
14.6031
14.8228
15.0492
15.2827
15.5234
15.7719
16.0284
16.2934
16.5673
16.8506
17.1437
17.4471
17.7616
18.0876
18.4257
18.7768
19.1415
19.5207
19.9155
10.0881
10.192
10.2985
10.4074
10.5187
10.6324
10.7485
10.8673
10.9887
11.1129
11.24
11.37
11.503
11.6392
11.7786
11.9215
12.0678
12.2178
12.3715
12.5292
12.6909
12.8569
13.0272
13.2021
13.3818
13.5665
13.7563
13.9515
14.1523
14.359
14.5719
14.7912
15.0171
15.25
15.4903
15.7382
15.9942
16.2586
16.5319
16.8145
17.107
17.4098
17.7235
18.0487
18.3861
18.7364
19.1001
19.4781
19.8705
10.0552
10.1604
10.2672
10.376
10.487
10.6004
10.7162
10.8346
10.9556
11.0794
11.2061
11.3356
11.4683
11.604
11.743
11.8854
12.0313
12.1808
12.3341
12.4913
12.6526
12.818
12.9878
13.1622
13.3414
13.5255
13.7147
13.9093
14.1095
14.3156
14.5278
14.7464
14.9716
15.2039
15.4434
15.6906
15.9458
16.2094
16.4818
16.7636
17.0551
17.357
17.6697
17.9939
18.3302
18.6793
19.042
19.4192
19.813
10.0261
10.1286
10.234
10.3419
10.4524
10.5652
10.6806
10.7986
10.9192
11.0426
11.1688
11.2979
11.43
11.5653
11.7039
11.8458
11.9912
12.1402
12.293
12.4497
12.6104
12.7752
12.9445
13.1183
13.2968
13.4803
13.6689
13.8629
14.0624
14.2678
14.4793
14.6972
14.9217
15.1531
15.3918
15.6382
15.8925
16.1553
16.4268
16.7076
16.9982
17.299
17.6107
17.9338
18.2689
18.6167
18.9778
19.3528
19.741
9.9839
10.0889
10.1952
10.3032
10.4134
10.5259
10.6409
10.7584
10.8785
11.0014
11.1271
11.2558
11.3874
11.5222
11.6602
11.8016
11.9464
12.0949
12.2471
12.4032
12.5633
12.7275
12.8961
13.0693
13.2472
13.43
13.6179
13.8111
14.0099
14.2145
14.4252
14.6423
14.866
15.0965
15.3344
15.5798
15.8332
16.0949
16.3655
16.6452
16.9347
17.2344
17.5449
17.8667
18.2006
18.5471
18.907
19.2815
19.6734
9.94086
10.0415
10.1456
10.2524
10.3617
10.4735
10.5878
10.7046
10.8242
10.9464
11.0715
11.1995
11.3304
11.4645
11.6019
11.7425
11.8867
12.0344
12.1858
12.3411
12.5004
12.6639
12.8316
13.0039
13.1809
13.3628
13.5498
13.742
13.9398
14.1434
14.3531
14.569
14.7916
15.021
15.2577
15.5019
15.754
16.0144
16.2836
16.562
16.85
17.1482
17.4572
17.7774
18.1095
18.4542
18.812
19.1831
19.5661
9.89475
9.9994
10.1048
10.212
10.3212
10.4326
10.5465
10.6629
10.7819
10.9037
11.0283
11.1557
11.2862
11.4198
11.5566
11.6967
11.8403
11.9874
12.1383
12.293
12.4516
12.6144
12.7816
12.9532
13.1295
13.3107
13.4969
13.6884
13.8854
14.0882
14.2971
14.5122
14.7339
14.9624
15.1981
15.4414
15.6925
15.952
16.2201
16.4974
16.7843
17.0814
17.3892
17.7082
18.0391
18.3825
18.7392
19.1104
19.4997
9.83109
9.92973
10.0321
10.1375
10.2454
10.3559
10.4688
10.5844
10.7025
10.8234
10.9471
11.0736
11.2032
11.3358
11.4716
11.6107
11.7532
11.8992
12.049
12.2025
12.3601
12.5217
12.6876
12.8579
13.0329
13.2128
13.3976
13.5877
13.7833
13.9846
14.1919
14.4055
14.6255
14.8524
15.0864
15.3279
15.5772
15.8347
16.1009
16.3762
16.661
16.9559
17.2615
17.5782
17.9068
18.2477
18.6015
18.9682
19.3453
9.7885
9.89248
9.99693
10.1029
10.2109
10.3212
10.4339
10.5491
10.6669
10.7874
10.9107
11.0368
11.166
11.2981
11.4335
11.5721
11.7142
11.8598
12.0091
12.1621
12.3191
12.4802
12.6455
12.8153
12.9898
13.169
13.3533
13.5427
13.7377
13.9383
14.1449
14.3578
14.5771
14.8032
15.0364
15.2771
15.5256
15.7823
16.0476
16.322
16.606
16.9
17.2046
17.5204
17.848
18.1881
18.5414
18.9092
19.2957
9.69512
9.79143
9.89202
9.99577
10.1022
10.2112
10.3227
10.4367
10.5534
10.6726
10.7947
10.9195
11.0473
11.1781
11.3121
11.4493
11.5898
11.7339
11.8816
12.033
12.1883
12.3477
12.5113
12.6793
12.8519
13.0292
13.2115
13.399
13.5919
13.7904
13.9948
14.2054
14.4224
14.6461
14.8768
15.115
15.3608
15.6148
15.8773
16.1488
16.4298
16.7207
17.0222
17.3348
17.6591
17.9958
18.3454
18.7077
19.0793
9.66407
9.76735
9.87103
9.97617
10.0832
10.1925
10.304
10.418
10.5345
10.6537
10.7756
10.9003
11.0279
11.1585
11.2922
11.4292
11.5695
11.7133
11.8608
12.012
12.167
12.3261
12.4894
12.6571
12.8294
13.0065
13.1885
13.3756
13.5681
13.7663
13.9704
14.1806
14.3972
14.6205
14.8509
15.0886
15.334
15.5876
15.8496
16.1207
16.4012
16.6916
16.9926
17.3048
17.6288
17.9654
18.3156
18.681
19.0666
9.52767
9.62499
9.72546
9.82853
9.93393
10.0416
10.1516
10.2641
10.379
10.4965
10.6166
10.7395
10.8653
10.994
11.1258
11.2608
11.399
11.5407
11.686
11.835
11.9877
12.1445
12.3054
12.4706
12.6404
12.8148
12.9941
13.1785
13.3682
13.5635
13.7645
13.9716
14.1851
14.4051
14.632
14.8662
15.108
15.3579
15.6161
15.8831
16.1595
16.4457
16.7423
17.0499
17.3692
17.701
18.046
18.4048
18.7759
9.52047
9.6206
9.72261
9.82654
9.93245
10.0404
10.1507
10.2632
10.3782
10.4958
10.6159
10.7388
10.8646
10.9933
11.1251
11.2601
11.3984
11.5401
11.6853
11.8343
11.9871
12.1438
12.3047
12.4699
12.6397
12.8141
12.9934
13.1778
13.3674
13.5627
13.7637
13.9708
14.1842
14.4042
14.6312
14.8653
15.1071
15.3569
15.6151
15.8821
16.1584
16.4446
16.7411
17.0487
17.368
17.6998
18.0451
18.4055
18.7836
9.34483
9.44713
9.54906
9.65188
9.75623
9.86245
9.97077
10.0813
10.1943
10.3097
10.4278
10.5485
10.672
10.7985
10.9279
11.0605
11.1963
11.3355
11.4782
11.6245
11.7746
11.9285
12.0866
12.2489
12.4156
12.5869
12.763
12.9441
13.1304
13.3222
13.5197
13.7231
13.9327
14.1488
14.3717
14.6017
14.8392
15.0846
15.3382
15.6004
15.8718
16.1528
16.444
16.7459
17.0592
17.3847
17.7233
18.0768
18.4494
9.35082
9.44366
9.54107
9.64166
9.74482
9.85035
9.95821
10.0684
10.1811
10.2963
10.4141
10.5347
10.658
10.7842
10.9135
11.0459
11.1815
11.3205
11.463
11.6091
11.7589
11.9127
12.0705
12.2326
12.3991
12.5702
12.7461
12.9269
13.113
13.3045
13.5017
13.7048
13.9142
14.13
14.3526
14.5823
14.8194
15.0644
15.3177
15.5795
15.8505
16.131
16.4216
16.7229
17.0354
17.3597
17.6961
18.044
18.3984
9.18301
9.2824
9.38134
9.48135
9.58308
9.68682
9.79274
9.90099
10.0117
10.1249
10.2406
10.3591
10.4803
10.6044
10.7315
10.8616
10.9949
11.1316
11.2717
11.4154
11.5627
11.7139
11.8691
12.0284
12.1922
12.3604
12.5333
12.7112
12.8941
13.0824
13.2763
13.4761
13.6819
13.8941
14.113
14.3388
14.572
14.8129
15.0619
15.3193
15.5857
15.8615
16.1471
16.4432
16.7502
17.0687
17.3993
17.7434
18.1064
9.14489
9.23433
9.32853
9.42603
9.52619
9.62878
9.73374
9.84112
9.95097
10.0634
10.1783
10.296
10.4164
10.5397
10.666
10.7953
10.9278
11.0636
11.2028
11.3456
11.4921
11.6423
11.7965
11.9549
12.1176
12.2848
12.4567
12.6335
12.8153
13.0024
13.1952
13.3937
13.5983
13.8092
14.0267
14.2512
14.4829
14.7223
14.9697
15.2256
15.4903
15.7643
16.0482
16.3423
16.6472
16.9634
17.291
17.6294
17.9737
9.00567
9.10301
9.19965
9.29724
9.39651
9.49779
9.6013
9.70714
9.81542
9.9262
10.0395
10.1555
10.2743
10.3959
10.5204
10.6479
10.7786
10.9125
11.0499
11.1907
11.3351
11.4833
11.6354
11.7916
11.9521
12.117
12.2866
12.4609
12.6402
12.8248
13.0149
13.2107
13.4125
13.6205
13.8351
14.0565
14.285
14.5212
14.7652
15.0175
15.2786
15.5489
15.8289
16.119
16.4198
16.7318
17.0557
17.393
17.7496
8.91041
8.99651
9.08757
9.18201
9.27916
9.37877
9.48077
9.58518
9.69202
9.80136
9.91325
10.0278
10.145
10.265
10.388
10.5139
10.6429
10.7752
10.9108
11.0498
11.1924
11.3387
11.4889
11.6432
11.8016
11.9645
12.1319
12.304
12.4811
12.6633
12.851
13.0444
13.2436
13.449
13.6608
13.8794
14.1051
14.3383
14.5793
14.8284
15.0862
15.3532
15.6297
15.9163
16.2134
16.5216
16.8411
17.1712
17.5064
8.81414
8.90918
9.00346
9.09872
9.1957
9.29472
9.39596
9.4995
9.60544
9.71384
9.82475
9.93827
10.0545
10.1734
10.2953
10.4201
10.548
10.679
10.8134
10.9512
11.0925
11.2376
11.3864
11.5393
11.6963
11.8577
12.0236
12.1942
12.3697
12.5503
12.7363
12.928
13.1254
13.329
13.5389
13.7556
13.9793
14.2103
14.4492
14.6961
14.9517
15.2163
15.4904
15.7747
16.0695
16.3756
16.6938
17.0257
17.3774
8.64644
8.72889
8.81681
8.90838
9.00276
9.09959
9.19875
9.30021
9.40402
9.51023
9.6189
9.73009
9.84389
9.9604
10.0797
10.2019
10.3271
10.4554
10.587
10.7219
10.8603
11.0023
11.148
11.2977
11.4514
11.6094
11.7719
11.9389
12.1107
12.2876
12.4697
12.6573
12.8506
13.0499
13.2554
13.4676
13.6866
13.9128
14.1466
14.3885
14.6387
14.8978
15.1664
15.4448
15.7338
16.034
16.3458
16.6689
16.9975
8.60422
8.69716
8.7902
8.88431
8.97996
9.07742
9.17686
9.27841
9.3822
9.48831
9.59683
9.70783
9.82142
9.9377
10.0568
10.1787
10.3036
10.4317
10.5629
10.6976
10.8356
10.9773
11.1227
11.272
11.4254
11.5831
11.7451
11.9117
12.0832
12.2596
12.4413
12.6285
12.8214
13.0202
13.2253
13.4369
13.6555
13.8812
14.1145
14.3558
14.6055
14.864
15.132
15.41
15.6986
15.9987
16.3116
16.6402
16.9925
8.34523
8.43615
8.52717
8.61909
8.71237
8.80728
8.90402
9.00275
9.10359
9.20665
9.31201
9.41977
9.53002
9.64287
9.75842
9.87676
9.99799
10.1222
10.2496
10.3802
10.5142
10.6517
10.7928
10.9377
11.0865
11.2395
11.3967
11.5584
11.7248
11.896
12.0723
12.2539
12.4411
12.634
12.833
13.0383
13.2504
13.4694
13.6958
13.9299
14.1722
14.4231
14.6831
14.9527
15.2326
15.5236
15.8264
16.1425
16.4733
8.3552
8.43934
8.52728
8.61781
8.71046
8.80509
8.9017
9.00036
9.10117
9.2042
9.30953
9.41726
9.52749
9.64032
9.75584
9.87414
9.99534
10.1196
10.2469
10.3775
10.5114
10.6488
10.7899
10.9348
11.0836
11.2365
11.3937
11.5553
11.7216
11.8928
12.0691
12.2506
12.4377
12.6306
12.8296
13.0349
13.2468
13.4658
13.6921
13.9262
14.1684
14.4191
14.679
14.9483
15.2278
15.5179
15.8191
16.1312
16.451
8.09821
8.18815
8.27679
8.36587
8.45616
8.54806
8.64179
8.73748
8.83526
8.93521
9.03742
9.14196
9.24895
9.35846
9.47058
9.58542
9.70307
9.82365
9.94727
10.074
10.204
10.3374
10.4744
10.615
10.7595
10.9079
11.0605
11.2174
11.3789
11.545
11.7161
11.8924
12.074
12.2613
12.4544
12.6537
12.8595
13.072
13.2917
13.5189
13.754
13.9973
14.2495
14.5108
14.7817
15.0629
15.3547
15.6586
15.9798
8.05788
8.13566
8.21836
8.30424
8.39257
8.48306
8.57564
8.67032
8.76716
8.86622
8.96755
9.07122
9.17733
9.28596
9.39719
9.51112
9.62785
9.74748
9.87014
9.99591
10.1249
10.2573
10.3931
10.5327
10.676
10.8233
10.9747
11.1304
11.2906
11.4555
11.6253
11.8002
11.9804
12.1662
12.3578
12.5555
12.7597
12.9706
13.1886
13.414
13.6472
13.8887
14.1388
14.3979
14.6666
14.945
15.2332
15.5301
15.8291
7.86361
7.94937
8.03402
8.11932
8.20602
8.29448
8.38487
8.4773
8.57185
8.6686
8.76759
8.86889
8.97259
9.07876
9.18749
9.29886
9.41297
9.52993
9.64984
9.7728
9.89892
10.0283
10.1612
10.2976
10.4377
10.5817
10.7298
10.882
11.0386
11.1998
11.3658
11.5368
11.713
11.8946
12.082
12.2753
12.4749
12.6811
12.8942
13.1146
13.3426
13.5787
13.8232
14.0766
14.3393
14.6118
14.8944
15.1887
15.5006
7.7279
7.80123
7.87943
7.96087
8.04481
8.13098
8.21928
8.3097
8.40227
8.49703
8.59401
8.69327
8.79489
8.89894
9.0055
9.11466
9.22651
9.34115
9.45868
9.57921
9.70283
9.82967
9.95987
10.0936
10.2309
10.3721
10.5172
10.6664
10.8199
10.9779
11.1406
11.3082
11.4809
11.659
11.8426
12.0321
12.2278
12.4299
12.6388
12.8549
13.0784
13.3098
13.5496
13.7981
14.0558
14.3231
14.6001
14.8859
15.1746
7.61428
7.69637
7.77754
7.85952
7.94303
8.02835
8.11565
8.20498
8.29642
8.39
8.48577
8.58379
8.68414
8.78689
8.89213
8.99992
9.11036
9.22355
9.33961
9.45862
9.58068
9.70593
9.83449
9.96651
10.1021
10.2415
10.3848
10.5321
10.6837
10.8397
11.0004
11.1659
11.3364
11.5122
11.6935
11.8807
12.0739
12.2735
12.4798
12.6931
12.9138
13.1425
13.3793
13.625
13.8798
14.1446
14.42
14.7077
15.014
7.37048
7.43915
7.51314
7.59061
7.6707
7.75302
7.8374
7.92379
8.0122
8.10267
8.19524
8.28997
8.38692
8.48619
8.58784
8.69196
8.79863
8.90796
9.02005
9.13499
9.25288
9.37385
9.49801
9.62552
9.75651
9.89113
10.0295
10.1718
10.3182
10.4688
10.624
10.7838
10.9485
11.1183
11.2935
11.4742
11.6608
11.8536
12.0528
12.2589
12.4721
12.6929
12.9218
13.1592
13.4057
13.662
13.9285
14.2053
14.4871
7.34496
7.4234
7.50261
7.58298
7.66473
7.74804
7.83301
7.91977
8.00841
8.09903
8.19168
8.28646
8.38343
8.4827
8.58434
8.68843
8.79507
8.90437
9.01642
9.13132
9.24917
9.37008
9.4942
9.62166
9.7526
9.88716
10.0255
10.1677
10.314
10.4646
10.6197
10.7795
10.9442
11.1139
11.2889
11.4696
11.6561
11.8488
12.048
12.2539
12.4671
12.6878
12.9166
13.154
13.4005
13.6571
13.9252
14.208
14.5145
6.98083
7.06223
7.14127
7.21981
7.29874
7.37875
7.46009
7.54299
7.62761
7.71404
7.80239
7.89273
7.98513
8.07968
8.17651
8.27571
8.37733
8.48146
8.58818
8.6976
8.80984
8.92502
9.04325
9.16466
9.28938
9.41753
9.54925
9.68472
9.82411
9.9676
10.1154
10.2675
10.4244
10.586
10.7528
10.9249
11.1026
11.2861
11.4757
11.6719
11.8749
12.0851
12.303
12.5289
12.7634
13.0071
13.2608
13.5257
13.8045
7.00068
7.0697
7.14296
7.21873
7.29644
7.37585
7.45689
7.53962
7.62413
7.71052
7.79884
7.8891
7.98143
8.07596
8.17279
8.27196
8.37351
8.47755
8.58422
8.69361
8.80582
8.92096
9.03914
9.16048
9.28513
9.41321
9.54489
9.68033
9.81968
9.9631
10.1108
10.2629
10.4196
10.5812
10.7479
10.9199
11.0975
11.2809
11.4705
11.6665
11.8694
12.0794
12.297
12.5225
12.7564
12.9988
13.2497
13.5076
13.7649
6.70556
6.7796
6.85264
6.92617
7.00083
7.07685
7.1544
7.23363
7.31461
7.39739
7.48201
7.56854
7.65711
7.74782
7.8407
7.93579
8.03318
8.13299
8.23534
8.34029
8.44795
8.55839
8.67175
8.78816
8.90774
9.03063
9.15698
9.28691
9.42057
9.55814
9.6998
9.84573
9.99612
10.1512
10.311
10.476
10.6464
10.8224
11.0042
11.1923
11.3869
11.5883
11.7969
12.0131
12.2372
12.4694
12.7101
12.96
13.2241
6.61297
6.67633
6.74379
6.81398
6.88625
6.96033
7.03621
7.11386
7.19328
7.27452
7.35762
7.44268
7.52977
7.61892
7.71019
7.80365
7.89941
7.99758
8.09823
8.20144
8.30729
8.41587
8.52733
8.64181
8.75943
8.88029
9.00453
9.13228
9.26371
9.39899
9.5383
9.68181
9.82969
9.98214
10.1394
10.3016
10.4691
10.6422
10.821
11.0059
11.1973
11.3953
11.6005
11.8131
12.0334
12.2616
12.4978
12.741
12.986
6.41453
6.48399
6.55265
6.62195
6.69244
6.76444
6.83806
6.91335
6.99041
7.06926
7.14996
7.23258
7.31716
7.40375
7.4924
7.58321
7.67627
7.77167
7.86947
7.96974
8.07257
8.17809
8.28642
8.39767
8.51196
8.62939
8.7501
8.87424
9.00197
9.13344
9.26881
9.40826
9.55195
9.70009
9.85288
10.0105
10.1733
10.3415
10.5153
10.695
10.8809
11.0735
11.2729
11.4796
11.6939
11.9163
12.1472
12.3879
12.6437
6.20357
6.26204
6.32454
6.38969
6.4569
6.52597
6.59677
6.66928
6.74353
6.81956
6.8974
6.97707
7.05861
7.14209
7.2276
7.31522
7.405
7.497
7.59131
7.68802
7.78722
7.88902
7.99353
8.10084
8.21107
8.32435
8.4408
8.56056
8.68377
8.81059
8.94116
9.07567
9.21429
9.3572
9.50458
9.65667
9.8137
9.97592
10.1436
10.317
10.4964
10.6822
10.8747
11.0743
11.2814
11.4963
11.7195
11.9504
12.1849
6.10755
6.17249
6.23732
6.30299
6.36998
6.43843
6.50845
6.58009
6.65342
6.72849
6.80531
6.88391
6.96436
7.04675
7.13115
7.2176
7.30617
7.39693
7.48998
7.58541
7.68331
7.78375
7.88684
7.99271
8.10147
8.21324
8.32814
8.4463
8.56786
8.69297
8.8218
8.95453
9.0913
9.23229
9.37771
9.52777
9.68272
9.84279
10.0082
10.1793