/*--------------------------------*- C++ -*----------------------------------*\
  =========                 |
  \\      /  F ield         | OpenFOAM: The Open Source CFD Toolbox
   \\    /   O peration     | Website:  https://openfoam.org
    \\  /    A nd           | Version:  6
     \\/     M anipulation  |
\*---------------------------------------------------------------------------*/
FoamFile
{
    version     2.0;
    format      ascii;
    class       volScalarField;
    location    "30";
    object      gradTz;
}
// * * * * * * * * * * * * * * * * * * * * * * * * * * * * * * * * * * * * * //

dimensions      [0 -1 0 1 0 0 0];

internalField   nonuniform List<scalar> 
13524
(
0
-2.32646e-17
0
2.80268e-17
0
-9.10245e-17
-2.90888e-16
2.3881e-16
-3.87832e-16
5.88203e-16
-5.47681e-16
-4.40506e-16
8.14872e-16
-4.91326e-16
-8.60128e-16
-1.95093e-16
6.38079e-16
-1.78238e-16
-3.83869e-16
-2.06161e-16
0
7.33507e-16
-4.52778e-16
-1.31604e-15
-5.70991e-16
-3.03236e-16
-1.95853e-15
9.93171e-16
3.60688e-16
0
-4.02936e-16
-4.25331e-16
0
4.73102e-16
4.98506e-16
1.59383e-15
-1.0862e-15
1.18329e-15
-1.81494e-15
0
0
0
-7.47384e-16
4.71377e-20
0
4.76412e-20
0
9.57793e-16
1.03683e-15
6.5287e-17
8.59949e-17
-1.06397e-16
0
2.00175e-16
-7.42094e-17
3.45815e-16
-5.13695e-16
3.51676e-16
8.4022e-17
1.88935e-16
1.05265e-16
0
1.27953e-16
1.39865e-16
3.04451e-16
0
3.56498e-16
1.91951e-16
-4.36312e-16
1.08052e-15
1.20611e-15
-1.51274e-15
1.31632e-15
-5.98399e-16
1.18556e-15
3.2165e-16
-1.39294e-15
1.41301e-15
1.1757e-15
-1.59641e-15
1.70197e-15
-1.3295e-15
1.77721e-17
-1.99454e-15
-1.84282e-17
0
-2.34663e-15
1.20328e-15
0
-6.76499e-16
0
-3.32892e-20
-1.57091e-15
0
-8.6732e-16
0
-9.57793e-16
-1.08158e-20
5.75446e-17
-7.36403e-17
-1.97277e-17
0
-3.66642e-17
-9.10919e-17
-5.47053e-17
2.74585e-16
-3.75094e-17
-3.17635e-16
-9.44747e-17
-1.05261e-16
0
-1.27949e-16
0
-1.52232e-16
-1.65031e-16
-1.78255e-16
0
-2.06178e-16
-1.129e-15
9.19966e-16
-2.52023e-16
-1.10034e-15
-6.25098e-16
1.48872e-15
0
-3.4082e-16
-3.60704e-16
3.81405e-16
-1.225e-15
8.34414e-16
-4.65915e-16
2.3659e-15
-1.47763e-15
-5.43881e-16
-3.85844e-17
1.72507e-15
6.11814e-16
0
2.05173e-15
-1.3996e-15
2.26612e-15
-7.61153e-16
0
0
1.85065e-15
-1.8873e-15
3.05e-15
0
0
1.1485e-16
-9.61213e-17
3.66769e-17
-1.53911e-16
2.01643e-16
3.38939e-16
1.10396e-16
-3.1781e-16
9.44953e-17
0
1.16436e-16
0
-5.80787e-16
7.40083e-16
-5.17348e-16
8.69141e-16
0
0
2.20935e-16
0
2.52053e-16
-2.68493e-16
-8.84021e-16
1.48899e-15
-3.21699e-16
-6.77394e-21
0
3.81441e-16
-4.19202e-16
1.25998e-15
0
-4.73156e-16
-4.98561e-16
5.25068e-16
5.72288e-16
-1.14362e-15
-6.1186e-16
-1.95199e-15
3.38324e-15
-1.39977e-15
-2.26636e-15
2.33228e-15
8.25435e-16
0
9.11461e-16
9.57832e-16
-1.00665e-15
0
0
-1.97348e-17
1.2869e-16
-1.66742e-16
1.99334e-16
-2.01512e-16
-3.38802e-16
2.03729e-16
3.54932e-16
-4.5348e-16
0
3.69345e-16
-4.91525e-16
0
-7.82797e-16
1.3205e-15
-8.68968e-16
-7.9116e-16
5.95044e-16
6.87211e-16
-1.1562e-15
7.81879e-16
-7.79317e-16
0
-1.5443e-15
1.58007e-15
3.40824e-16
0
-3.81426e-16
-4.02972e-16
-4.25406e-16
0
4.73138e-16
-1.01532e-15
5.06522e-16
1.67761e-15
-1.14349e-15
6.11836e-16
6.43433e-16
-6.765e-16
0
2.26617e-15
-2.33209e-15
-8.25402e-16
8.941e-16
-8.56408e-16
-2.8451e-15
1.00661e-15
0
0
9.51007e-17
-9.61071e-17
0
4.55456e-17
-2.36484e-16
2.39097e-16
-3.14236e-16
3.17786e-16
-3.97225e-16
4.01817e-16
1.16423e-16
0
0
0
-5.1733e-16
-2.23303e-16
1.45803e-16
1.5884e-16
8.59697e-16
1.44243e-15
-7.30844e-16
1.36902e-15
-8.29976e-16
0
0
3.40821e-16
3.60722e-16
-3.81424e-16
0
1.29294e-15
-4.32004e-16
-9.6406e-16
9.60905e-16
1.03168e-15
5.52721e-16
1.18348e-15
-1.20337e-15
6.43438e-16
6.76506e-16
0
1.51889e-15
-7.61284e-16
-1.67671e-15
2.57602e-15
0
-9.86858e-16
4.02742e-15
-3.80968e-18
1.16412e-17
-9.496e-17
9.59649e-17
0
-9.10747e-17
5.46939e-17
0
0
-3.5486e-16
2.64453e-16
0
-1.81676e-20
0
-1.3987e-16
6.3047e-16
-1.21086e-16
-1.24801e-15
7.44886e-16
-8.4852e-16
1.72304e-16
1.65354e-15
-1.23467e-15
-2.68471e-16
8.83759e-16
-8.82186e-16
1.3154e-15
5.8698e-17
-1.77353e-15
1.54128e-15
-7.90005e-16
-4.25395e-16
4.65886e-16
-9.28833e-16
-2.49323e-20
0
-2.57346e-20
-5.81587e-16
0
-6.43423e-16
6.98745e-16
-2.13378e-15
7.23956e-16
-7.85459e-16
-1.67653e-15
1.70846e-15
1.85064e-15
-2.84508e-15
0
3.80976e-18
-1.04234e-21
9.50157e-17
-9.60211e-17
0
4.55311e-17
-5.46951e-17
-2.74601e-16
2.77669e-16
0
4.91548e-16
-4.01674e-16
-6.02158e-16
4.91503e-16
1.39873e-16
0
1.64999e-16
7.35712e-16
-1.72807e-15
8.01221e-16
-1.12902e-15
1.88986e-15
-2.01662e-15
1.04779e-15
0
9.37779e-16
-2.2522e-15
9.93334e-16
-7.36659e-16
3.66013e-16
0
-4.25369e-16
0
0
-1.51385e-15
2.10052e-15
-1.63901e-15
1.21532e-20
0
6.43397e-16
-1.3753e-15
1.39962e-15
1.49477e-15
0
8.25372e-16
0
9.11406e-16
0
-1.50976e-17
0
-1.16404e-17
-9.49368e-17
2.24551e-16
-1.29985e-16
0
0
0
0
0
0
0
0
5.32265e-16
-5.3864e-16
-6.30413e-16
-2.08936e-16
-4.50364e-17
7.44848e-16
0
0
0
0
0
-1.16924e-15
-5.5526e-17
9.36601e-16
0
7.36591e-16
3.11008e-17
-7.89978e-16
1.29274e-15
-8.80611e-16
9.63886e-16
-1.99432e-15
1.0315e-15
-1.12483e-15
5.41716e-16
1.20318e-15
6.64922e-16
-1.33107e-15
-7.11092e-16
-7.4738e-16
0
-3.32723e-15
-5.29569e-17
8.84203e-16
0
-1.00663e-15
2.68421e-17
-4.26127e-17
-1.97205e-17
2.80544e-17
0
-4.55304e-17
-1.81545e-16
1.74693e-16
0
-8.40277e-17
9.44625e-17
-1.05249e-16
-1.16402e-16
5.32241e-16
-6.78485e-16
-7.82606e-16
4.73117e-16
0
-1.91956e-16
-2.06166e-16
2.20895e-16
-1.20588e-15
2.01631e-15
-2.15867e-16
3.39541e-16
-2.47715e-16
-1.91586e-15
1.70411e-15
-1.80362e-15
3.65931e-16
-4.02939e-16
-8.67346e-16
4.31844e-16
4.90758e-16
-4.80533e-16
-1.59385e-15
1.08622e-15
-1.76486e-15
1.81495e-15
-6.434e-16
-6.76467e-16
0
0
8.10226e-16
-1.62552e-15
0
0
9.72254e-16
-9.91895e-16
3.83585e-17
-8.18188e-17
1.02511e-16
-1.56808e-16
1.66797e-16
4.55308e-17
-1.09403e-16
4.02998e-16
-5.91909e-16
4.85793e-16
-9.44634e-17
2.10516e-16
6.02231e-16
-6.19533e-16
7.20557e-16
-4.35503e-16
8.47284e-16
-5.12491e-16
1.91958e-16
1.05483e-15
-1.30142e-15
2.3617e-16
2.52032e-16
1.36891e-15
-1.11541e-15
1.54435e-15
-1.25847e-15
-3.40794e-16
3.60695e-16
3.81396e-16
4.02942e-16
0
-1.72255e-17
1.40203e-15
-4.98512e-16
-5.43967e-16
1.08637e-15
1.16321e-15
6.32723e-16
2.10297e-17
6.76472e-16
0
7.47414e-16
7.85443e-16
2.50203e-15
-8.4124e-16
1.85077e-15
-2.85974e-15
9.91963e-16
-3.81253e-18
0
7.52588e-17
-9.59921e-17
-3.66652e-17
0
5.47067e-17
-1.28347e-16
0
-8.40414e-17
0
-1.05263e-16
0
6.60314e-16
-1.25923e-15
5.87633e-16
0
-1.78256e-16
0
0
1.12901e-15
-6.83778e-16
-1.2859e-15
1.04776e-15
-2.8553e-16
0
0
-6.96405e-16
-3.02109e-17
-3.10997e-17
7.90023e-16
0
-4.48756e-16
0
0
1.0689e-15
-1.08628e-15
-5.816e-16
-1.24444e-15
6.22305e-16
0
0
-7.4739e-16
-1.59573e-15
2.45094e-15
-8.67321e-16
0
-9.72256e-16
9.91897e-16
0
-1.16509e-17
9.50957e-17
-2.24894e-16
-3.33895e-17
2.1088e-16
1.81763e-16
-1.74915e-16
-7.3957e-17
-8.40555e-17
0
-1.05278e-16
0
0
-3.98966e-21
0
5.17314e-16
-8.69101e-16
-1.91989e-16
-1.05493e-15
8.59687e-16
-2.36198e-16
7.82023e-16
-1.31643e-15
-5.84765e-16
2.89555e-16
-9.79508e-16
3.2632e-16
0
-7.78599e-16
-3.20291e-17
8.34526e-16
-9.14786e-16
4.55824e-16
0
0
5.52729e-16
0
-1.85642e-15
2.57435e-15
-3.38316e-15
6.88595e-16
1.51888e-15
-3.14263e-15
2.47699e-15
-2.57599e-15
0
-9.57816e-16
1.50824e-17
0
2.32999e-17
0
2.80686e-17
0
-4.55511e-17
-1.2694e-16
5.13599e-16
-2.0373e-16
8.40526e-17
0
-3.35422e-16
9.31623e-16
-1.02391e-15
6.78664e-16
0
3.30058e-16
1.78269e-16
9.83132e-16
2.53551e-16
-8.59537e-16
0
5.0407e-16
5.36949e-16
5.84681e-16
3.31028e-16
3.50223e-16
7.1099e-16
-1.06715e-15
0
4.0296e-16
-4.25394e-16
4.48766e-16
4.73129e-16
0
5.25034e-16
-5.5271e-16
5.81611e-16
6.11827e-16
0
1.35298e-15
-7.34204e-16
1.47136e-15
0
0
1.74805e-15
-8.97815e-16
1.93004e-15
1.47036e-17
-3.81277e-18
-1.16498e-17
-1.97301e-17
-2.70214e-21
-3.66686e-17
-2.44969e-16
1.46886e-16
0
3.88161e-16
-4.67853e-17
-4.53564e-16
3.35527e-16
-4.45951e-16
-1.27957e-16
0
-1.52241e-16
-3.30057e-16
0
-9.83242e-16
1.85624e-15
-1.08057e-15
0
-5.04073e-16
-2.68481e-16
-2.85539e-16
3.17313e-16
-9.50931e-16
-3.40823e-16
3.60723e-16
-3.81417e-16
-8.65722e-21
8.78205e-21
-8.97548e-16
-1.43716e-15
9.79208e-16
-1.05009e-15
5.72262e-16
-2.30682e-15
-1.85638e-15
1.26583e-15
6.98864e-16
4.57172e-17
-1.47147e-15
0
-8.38336e-16
-2.64728e-17
1.82327e-15
-9.43712e-16
-1.02171e-15
-3.06802e-17
-3.1333e-17
1.97422e-16
-1.24053e-16
7.33281e-17
8.31473e-21
0
3.38741e-16
-3.51593e-16
8.40451e-17
9.44801e-17
2.10521e-16
0
2.55896e-16
1.39875e-16
-3.26027e-16
8.03246e-16
1.78246e-16
1.91973e-16
8.4852e-16
-8.59469e-16
0
-1.28874e-17
5.23865e-16
-2.9912e-16
2.75494e-16
1.27248e-15
0
3.60691e-16
1.54128e-15
-2.41793e-15
1.25978e-15
8.97502e-16
4.73119e-16
-5.16778e-16
2.08157e-15
5.527e-16
1.16319e-15
1.85624e-15
-1.93064e-15
1.3311e-15
-7.34203e-16
1.47133e-15
7.85432e-16
0
8.6731e-16
-9.25318e-16
9.43641e-16
0
3.81157e-18
0
-1.97252e-17
-1.28723e-16
9.34384e-17
4.55378e-17
0
-6.41645e-17
0
0
0
3.35443e-16
-4.45854e-16
4.04449e-16
-9.80214e-17
-7.3989e-16
0
-1.7825e-16
0
-6.30467e-16
6.50671e-16
0
-2.52017e-16
0
5.84685e-16
-5.9275e-16
3.36076e-16
2.93603e-17
-1.06714e-15
-3.81399e-16
4.02945e-16
0
-4.4875e-16
0
-2.00387e-20
5.43913e-16
3.85852e-17
-5.41726e-16
-1.20325e-15
-6.43407e-16
6.76453e-16
-7.11103e-16
0
-7.85446e-16
-8.25361e-16
-1.73463e-15
-9.25359e-16
-1.4093e-17
0
3.80637e-18
0
0
1.28602e-16
-1.29978e-16
0
0
0
2.40071e-16
-3.17527e-16
3.96953e-16
-4.01542e-16
0
-5.32232e-16
1.11907e-15
-5.87498e-16
6.82045e-16
4.50344e-17
-7.44804e-16
4.24207e-16
2.42948e-17
-4.5991e-16
0
5.50094e-16
-5.57578e-16
6.20415e-16
-6.29093e-16
0
0
0
-4.02898e-16
0
0
0
-4.98491e-16
0
0
0
-1.24436e-15
1.26563e-15
-6.76449e-16
-7.22612e-16
1.48297e-15
0
8.25357e-16
8.67301e-16
0
9.5777e-16
0
-3.4479e-17
-3.1318e-17
6.29608e-17
1.28614e-16
-2.93351e-16
1.65127e-16
2.36254e-16
-2.38865e-16
7.39081e-17
0
3.96958e-16
-4.01547e-16
0
-4.04319e-16
5.38609e-16
-1.52198e-16
-3.41023e-16
3.4526e-16
0
0
0
0
5.16866e-16
-5.23803e-16
-2.99102e-16
5.92654e-16
0
-6.96326e-16
7.06345e-16
-7.78409e-16
1.19284e-15
0
9.14587e-16
-9.28766e-16
1.01522e-15
-1.5753e-15
2.21098e-15
-1.14338e-15
-6.22178e-16
6.32814e-16
6.87584e-16
-6.99754e-16
-7.47336e-16
-7.97827e-16
8.12739e-16
0
0
9.57759e-16
0
-3.45027e-17
4.26506e-17
0
-1.56704e-16
1.30032e-16
0
-2.90984e-16
2.38911e-16
0
3.54837e-16
-3.58892e-16
-4.40596e-16
3.29364e-16
-1.27916e-16
2.90257e-16
3.25836e-16
-4.84065e-16
0
1.91935e-16
-2.06143e-16
2.20872e-16
0
-2.51987e-16
2.68426e-16
5.84622e-16
-5.92682e-16
9.79293e-16
-1.02259e-15
7.06374e-16
7.78439e-16
-3.87061e-16
-4.25343e-16
0
4.73074e-16
-4.98477e-16
1.06886e-15
-1.08623e-15
-5.81558e-16
6.1177e-16
6.43367e-16
6.87602e-16
1.12902e-17
1.50669e-15
1.21293e-17
-8.38256e-16
-8.93768e-16
1.80918e-15
-9.57759e-16
2.0283e-15
3.8088e-18
-5.81721e-18
-9.86027e-18
1.70699e-16
3.33744e-17
3.4101e-17
8.95341e-17
-2.06805e-16
0
-1.35392e-16
1.79431e-16
5.26213e-17
3.59201e-16
-5.11818e-16
3.39244e-16
-4.67395e-16
4.84046e-16
3.67784e-16
-6.60314e-16
6.30355e-16
-6.50557e-16
-4.84851e-16
7.43255e-16
-2.68422e-16
-2.85487e-16
4.68809e-16
-9.5072e-16
3.5557e-16
-7.06349e-16
7.78412e-16
-1.19285e-15
4.25337e-16
0
-4.73067e-16
-5.16747e-16
5.06486e-16
0
8.8239e-16
-1.21333e-15
-6.43358e-16
-6.87583e-16
-1.12994e-17
-7.4734e-16
1.24298e-17
-2.06364e-15
2.60215e-15
-3.19013e-15
-2.86222e-17
-5.17997e-16
0
5.07354e-17
-6.30345e-17
-1.40272e-17
-1.83298e-17
-2.22109e-16
2.0152e-16
-3.38772e-16
2.40715e-16
-4.20119e-17
-4.72332e-17
-1.05248e-16
2.42877e-16
-1.81781e-16
4.68296e-21
3.15258e-16
-3.19126e-16
3.67848e-16
2.15037e-16
-2.97518e-16
0
0
1.26004e-16
5.5017e-16
-5.57655e-16
3.03231e-16
0
0
1.80343e-16
5.87795e-16
-7.90022e-16
0
2.24369e-16
0
-2.4925e-16
0
5.62436e-16
9.84438e-18
0
-6.54183e-16
3.2733e-16
7.2266e-16
2.36907e-17
-3.8059e-16
-1.29223e-17
8.5425e-16
-5.39762e-21
4.78887e-16
5.03299e-16
-1.90572e-18
5.82251e-18
-3.8325e-22
0
-8.17116e-17
1.05362e-16
0
3.20802e-17
-1.64677e-21
-4.2017e-17
4.72323e-17
-1.98518e-21
0
-1.27938e-16
2.2034e-16
-2.93793e-16
-3.41066e-16
2.56181e-16
-9.59758e-17
-1.0308e-16
0
-1.18083e-16
-2.52006e-16
-5.50136e-16
4.14865e-16
-1.51615e-16
0
6.96367e-16
-8.86726e-16
-7.78452e-16
1.61199e-15
-8.34371e-16
2.32948e-16
-7.00951e-16
2.49246e-16
0
0
-5.81575e-16
6.22197e-16
-6.32833e-16
1.02583e-15
-1.4224e-15
7.35651e-16
4.05133e-16
-2.06368e-15
4.20566e-16
-9.25306e-16
4.64749e-16
1.52496e-15
-2.88116e-17
6.22272e-17
2.58639e-17
-4.80222e-17
1.00073e-16
-8.2626e-17
0
0
3.69688e-17
-1.35455e-16
1.79501e-16
5.26277e-17
-5.82055e-17
3.30172e-16
-2.69389e-16
0
0
4.56987e-16
-7.68069e-16
9.28e-16
-4.29771e-16
1.18085e-16
1.26006e-16
0
5.84681e-16
-5.92748e-16
-1.60828e-16
0
0
1.90695e-16
0
0
-4.57343e-16
2.19011e-16
4.89563e-16
0
0
2.90793e-16
0
0
6.87638e-16
-6.99808e-16
7.59378e-16
-7.73312e-16
0
4.33655e-16
-1.72469e-21
0
-5.03298e-16
1.53449e-17
-1.5504e-17
0
0
0
-9.96549e-17
1.00744e-16
1.37293e-16
1.82154e-17
-1.58817e-16
0
1.67699e-16
-4.07564e-16
1.81766e-16
2.90288e-16
-3.69919e-16
0
-8.91234e-17
0
-2.06168e-16
0
-1.18085e-16
0
-1.34225e-16
7.27404e-16
-7.4433e-16
-1.68021e-16
5.11307e-16
1.51051e-17
-3.73682e-16
-4.11012e-16
4.17193e-16
0
0
0
0
0
0
0
0
0
-7.22636e-16
-3.97373e-16
1.57112e-15
-1.65101e-15
4.20571e-16
4.55691e-16
4.8612e-16
-4.9594e-16
-1.53564e-17
1.55155e-17
0
6.4359e-17
-6.50473e-17
0
1.18194e-16
-1.195e-16
0
-1.7747e-16
3.78053e-16
-1.48222e-16
0
-2.02226e-16
2.69387e-16
7.61134e-17
0
8.91243e-17
-3.95575e-16
5.037e-16
4.54062e-16
-8.26844e-16
4.91355e-16
-1.40865e-16
2.78834e-16
1.51621e-16
0
-1.77812e-16
3.53218e-16
0
4.11031e-16
-4.17212e-16
0
0
0
0
0
5.91672e-16
-6.01616e-16
-6.54185e-16
6.65562e-16
-7.22661e-16
1.10937e-15
0
0
-6.70686e-18
4.4891e-16
0
0
0
5.82226e-18
0
0
1.83299e-17
0
0
1.05212e-16
-1.38827e-16
0
-1.98532e-16
2.00827e-16
5.82031e-17
0
0
-7.61113e-17
0
0
2.93752e-16
-2.00293e-16
3.37463e-16
1.24666e-17
1.27991e-17
-6.71229e-16
5.71141e-16
-4.47973e-16
1.60824e-16
0
0
-1.90692e-16
4.11012e-16
1.64992e-17
-4.40313e-16
4.81949e-16
-9.97172e-16
-1.86793e-17
5.43125e-16
-5.91648e-16
6.01592e-16
0
0
0
-3.79672e-16
3.86638e-16
4.19125e-16
-4.27108e-16
0
-4.86118e-16
4.95939e-16
9.52822e-19
-2.91111e-18
4.93103e-18
-5.73367e-17
5.58746e-17
1.13841e-17
-1.3675e-17
1.6041e-17
0
0
-2.36169e-17
2.20341e-16
-5.531e-16
1.12658e-16
1.69655e-16
-4.34619e-17
1.59563e-16
0
-4.79897e-17
0
-1.10448e-16
0
6.30021e-17
4.09308e-16
1.35054e-17
2.41308e-16
-8.84675e-16
3.3352e-16
9.01711e-17
-1.98548e-16
3.95008e-16
-1.06341e-16
1.12184e-16
4.81959e-16
-9.97194e-16
5.15767e-16
1.38168e-16
1.45394e-16
1.52947e-16
0
1.69113e-16
3.61324e-16
-3.67834e-16
0
6.2547e-16
-4.27116e-16
0
2.39438e-16
0
-1.9055e-18
-5.82204e-18
-3.81479e-22
-1.40289e-17
-1.83291e-17
8.82687e-17
-1.59826e-16
5.97381e-17
-6.00361e-17
-3.03218e-17
-9.52785e-18
1.8426e-16
-1.11449e-16
1.011e-16
-2.7982e-16
1.08845e-16
-4.12502e-17
-4.45596e-17
-9.59763e-17
-5.15399e-17
5.52219e-17
3.01487e-16
-2.45659e-16
6.71102e-17
7.13765e-17
-3.8604e-16
4.75392e-16
4.33381e-16
-3.53197e-16
9.53444e-17
1.0073e-16
2.12679e-16
4.57314e-16
-5.87106e-16
3.69388e-16
0
-1.20037e-21
2.9582e-16
-6.11893e-16
4.7726e-16
-1.24054e-21
1.77766e-16
1.86838e-16
1.96351e-16
-2.06336e-16
2.1682e-16
-2.34807e-16
-1.43074e-17
4.95937e-16
-6.72221e-18
-4.92343e-18
1.08214e-17
7.01425e-18
5.00248e-17
-4.13022e-17
1.36743e-17
1.60398e-17
-7.85213e-17
1.00416e-16
1.46497e-16
9.75052e-18
-5.3251e-17
1.65069e-16
-1.69646e-16
3.80539e-17
2.53038e-16
-3.12012e-16
2.34216e-16
5.15399e-17
-4.8997e-22
-4.99773e-22
-6.30005e-17
-3.42183e-16
2.07439e-16
7.58066e-17
1.64421e-16
-7.78548e-17
-3.60751e-16
9.14953e-17
-5.66119e-22
-5.72423e-22
-3.4084e-16
2.32203e-16
-3.78437e-16
-9.33965e-18
1.33395e-16
-4.41214e-16
3.00794e-16
-1.60843e-16
-3.38219e-16
-5.64685e-22
-1.86838e-16
6.218e-18
-1.93588e-16
-4.20404e-16
-2.14085e-16
-9.50684e-16
-2.51642e-16
-9.52606e-19
0
-4.93023e-18
-7.01373e-18
-9.16366e-18
0
-1.36734e-17
-1.60389e-17
-1.84828e-17
-2.10063e-17
-1.46491e-16
1.2672e-16
-1.79625e-16
1.22863e-16
0
-7.61066e-17
8.80343e-17
-3.5656e-16
3.36002e-16
-2.51823e-16
-5.52212e-17
-2.39298e-16
5.98279e-17
-1.37533e-16
6.80297e-17
-1.51611e-16
-3.25236e-16
-9.25321e-17
-3.74035e-18
-9.53423e-17
-1.0073e-16
-2.12674e-16
-3.40833e-16
3.54898e-16
-1.15572e-16
-5.25084e-16
2.71557e-16
-1.45389e-16
-3.05885e-16
3.27074e-16
-3.32761e-16
5.78155e-18
-3.67821e-16
-1.99456e-16
4.0952e-16
-3.35065e-18
2.27929e-16
-2.35903e-16
5.03281e-16
4.76278e-19
0
2.4651e-18
7.01371e-18
4.54378e-17
-4.12976e-17
6.83676e-18
5.03591e-17
-4.39447e-17
3.15091e-17
2.36147e-17
-1.31553e-17
-3.16127e-17
4.54391e-17
0
-5.97795e-17
1.41646e-16
0
-7.48879e-17
1.98496e-17
1.93321e-16
-8.54667e-17
1.60724e-16
-3.02044e-16
1.7509e-16
3.79027e-17
8.04079e-17
4.25963e-17
9.01668e-17
2.42279e-16
-2.47855e-16
5.31684e-17
2.84741e-16
-2.32197e-16
1.24619e-16
-1.33604e-16
2.07296e-16
-7.02292e-17
1.52941e-16
-8.04198e-17
-2.79028e-18
2.63821e-16
0
2.97631e-16
-1.00019e-16
0
-3.48354e-18
4.75335e-16
-3.77459e-16
4.76323e-19
0
1.23266e-18
0
2.29102e-18
2.49117e-17
-1.83473e-17
4.00947e-18
5.31183e-17
-5.02037e-17
-5.90339e-18
-4.19221e-17
4.84472e-17
-5.05473e-17
6.73351e-17
9.51328e-18
-2.0624e-17
-1.03092e-16
1.17102e-16
1.31829e-16
-7.98185e-17
1.47596e-17
9.61107e-17
-4.87019e-17
3.56869e-17
1.89513e-17
-8.22078e-17
1.47267e-16
0
-7.34682e-17
2.11787e-17
2.39297e-16
-5.39847e-17
2.95666e-17
0
-1.33604e-16
2.04857e-16
-1.1156e-16
-5.1527e-18
1.98415e-16
-1.71897e-16
4.00033e-16
-1.372e-16
9.81737e-17
1.61326e-18
-1.60979e-16
-1.15661e-16
-6.34348e-17
3.12713e-16
1.19065e-19
3.89576e-18
3.23182e-18
-5.12212e-18
2.29072e-18
-1.38772e-17
-4.69176e-19
1.09225e-17
-2.42472e-17
-2.32846e-18
3.12857e-17
2.42483e-17
-5.09386e-17
3.07131e-17
0
-2.98882e-17
3.98844e-17
5.71132e-17
-4.65525e-17
2.65139e-17
2.98927e-17
-5.04846e-18
-2.28304e-17
8.38828e-18
-6.41533e-17
5.4257e-17
-1.18346e-17
-2.31323e-17
-1.8881e-18
-1.48419e-17
1.75297e-16
2.86458e-17
-1.12197e-16
2.84811e-17
6.34504e-17
-4.80603e-17
0
3.63464e-17
0
-4.15565e-17
-2.75872e-18
1.31908e-16
-9.41647e-17
4.83276e-17
-5.23885e-17
5.25487e-17
8.45892e-17
9.06919e-17
-2.95928e-17
-1.19065e-19
0
-6.1622e-19
-8.76637e-19
0
2.84543e-18
2.10828e-25
2.00472e-18
0
0
-2.95186e-18
1.91408e-22
0
3.99761e-18
-4.37077e-18
2.80172e-22
-5.15586e-18
5.56917e-18
-5.99766e-18
0
-6.90184e-18
-7.37996e-18
-1.57491e-17
1.6776e-17
5.32278e-22
0
1.00507e-17
6.64085e-22
1.12699e-17
-1.19175e-17
-1.25907e-17
0
4.36114e-22
-4.42875e-22
0
-1.64058e-17
5.17943e-22
0
-1.91173e-17
0
0
0
2.3354e-17
-7.6086e-22
7.75082e-22
0
-2.84795e-17
2.99288e-17
-6.29096e-17
0
4.62334e-18
-3.32033e-18
-9.79403e-18
8.12675e-18
-1.38772e-17
1.08815e-17
1.11445e-17
-3.23571e-17
2.92278e-18
2.24307e-17
3.28868e-18
3.03539e-17
-6.7978e-17
3.80362e-17
-9.51277e-18
-3.74744e-17
4.87293e-17
3.07171e-17
-2.5034e-17
6.36509e-17
-8.7794e-17
6.27467e-18
-4.44128e-17
9.73144e-17
-1.80907e-17
-8.22053e-17
1.26892e-16
-1.23993e-16
4.67069e-17
6.39636e-17
-7.97699e-17
1.12197e-16
6.24321e-17
-2.16981e-16
-2.33488e-18
1.38185e-16
-1.45412e-16
9.4312e-17
0
-4.36706e-17
4.23052e-17
2.26223e-17
9.9726e-17
-1.53979e-16
-1.65475e-18
1.13069e-16
6.07632e-17
-3.14795e-17
3.83692e-18
-4.60428e-18
0
1.78373e-17
-1.6256e-17
0
0
4.00947e-18
3.46369e-17
-4.4952e-17
0
0
0
6.65383e-17
-6.73351e-17
-6.92928e-17
7.97726e-17
-1.11391e-17
9.88806e-17
-1.0014e-16
0
6.06093e-17
-6.14121e-17
0
7.30772e-17
-9.30359e-17
-8.22078e-17
8.33738e-17
-6.9531e-17
-3.88732e-18
9.87453e-17
-2.65836e-17
-1.14325e-16
2.36581e-16
-9.12257e-17
1.33604e-16
-1.35776e-16
-1.47907e-16
1.50393e-16
1.63535e-16
-2.08655e-16
0
0
0
0
-1.67576e-18
-6.03986e-17
3.59196e-16
-6.10734e-17
7.67333e-18
-2.3339e-17
1.57494e-17
7.01372e-18
9.16363e-18
4.98234e-17
-5.03679e-17
-3.43204e-17
3.47038e-17
4.4358e-17
-2.12503e-17
8.13888e-17
3.40887e-17
-6.14302e-17
0
0
0
9.1953e-17
5.77156e-18
-1.00141e-16
0
5.90381e-17
6.62257e-17
-1.98067e-16
-7.13744e-17
0
0
0
9.01668e-17
-9.53419e-17
0
3.23174e-16
-2.20148e-16
0
0
-2.35938e-18
-2.38576e-18
0
1.52941e-16
0
0
1.80654e-16
5.92239e-18
6.14179e-18
-2.03184e-16
1.08409e-16
0
-1.16092e-16
1.33266e-16
0
-2.91092e-18
0
-7.01374e-18
-9.16366e-18
4.98249e-17
-5.03694e-17
0
0
-8.87182e-17
6.61174e-17
8.3847e-17
-1.40546e-16
1.3308e-16
-2.45031e-17
-3.04512e-16
1.59549e-16
0
0
0
0
-1.18078e-16
6.29987e-17
2.04642e-16
-6.80297e-17
0
-1.64418e-16
8.1557e-17
-9.01672e-17
9.53423e-17
2.055e-16
-3.14927e-16
-2.28654e-16
2.32199e-16
-1.24621e-16
-1.31246e-16
4.19366e-16
-2.8585e-16
-3.05885e-16
3.27074e-16
-3.32762e-16
1.83545e-16
-5.57654e-16
1.93316e-16
0
-4.36988e-16
2.27928e-16
-2.35905e-16
4.14398e-22
6.7222e-18
-7.75437e-18
-4.93061e-18
-7.01424e-18
3.16962e-17
-5.26856e-17
4.54123e-17
-7.57793e-17
-1.84831e-17
-1.0973e-16
8.97367e-17
-2.63124e-17
-2.91004e-17
-3.19839e-17
-3.92544e-22
-1.95675e-16
1.18305e-16
-2.28475e-16
-5.9531e-17
1.48751e-16
2.27014e-16
-1.11902e-16
0
6.71103e-17
-7.13766e-17
7.58072e-17
8.40118e-17
-1.7046e-16
8.64296e-17
9.53445e-17
1.04774e-16
-1.02256e-16
1.16477e-16
-1.13932e-16
-5.8996e-22
1.31248e-16
-4.19373e-16
4.31247e-16
-5.98828e-22
4.87922e-16
-5.01877e-16
7.16849e-16
-3.67826e-16
1.96352e-16
0
2.16821e-16
-2.3481e-16
9.50684e-16
-5.07057e-16
9.52684e-19
5.82203e-18
-4.25667e-17
1.19353e-16
-1.28414e-16
-1.70533e-17
1.14416e-16
-5.2605e-17
6.9411e-17
2.10074e-17
0
-8.3849e-17
2.61979e-16
4.22012e-17
-9.97105e-17
-8.71247e-22
-8.80355e-17
2.17215e-16
4.79877e-17
-9.36406e-22
-2.27013e-16
4.72428e-16
-1.82657e-16
-1.34221e-16
1.42754e-16
1.02916e-21
3.28841e-16
-7.0515e-17
-1.72857e-16
1.09274e-21
1.0073e-16
-1.06339e-16
1.12181e-16
-3.59243e-16
6.23203e-16
-2.57874e-16
2.76332e-16
-1.45392e-16
3.0589e-16
-3.27076e-16
5.01875e-16
-5.39081e-16
5.54664e-16
-1.96351e-16
0
-2.1682e-16
2.27842e-16
7.78534e-22
5.10829e-16
0
-2.91118e-18
-3.76471e-17
-1.63396e-17
7.42048e-17
1.13841e-17
2.73503e-17
0
1.8484e-17
4.20171e-17
-1.98544e-16
2.53467e-16
2.42877e-16
-4.86877e-17
-6.475e-17
3.80555e-17
4.12521e-17
0
9.59788e-17
5.15413e-17
-1.16576e-16
-7.15082e-17
1.82668e-16
2.01336e-16
-3.6371e-16
-8.96895e-17
5.5582e-16
0
9.01719e-17
2.93895e-16
-3.95008e-16
2.12683e-16
0
0
0
-1.3125e-16
-7.00597e-16
5.71725e-16
1.52948e-16
-1.60846e-16
6.82036e-16
1.1429e-17
-1.80992e-16
3.98929e-16
-4.06385e-16
6.70497e-18
-6.76748e-16
-1.20444e-15
-7.34222e-18
-1.9058e-18
0
-9.86201e-18
0
-1.83299e-17
-2.27692e-17
-1.45523e-16
8.73956e-17
0
-4.20168e-17
1.98532e-16
-2.53454e-16
0
-3.30143e-16
1.29486e-16
0
-8.25031e-17
0
-9.59782e-17
1.09048e-16
-3.25316e-16
1.24366e-16
-2.45662e-16
1.40852e-16
-4.21575e-16
0
-1.60824e-16
0
-3.60685e-16
3.89232e-16
-3.94998e-16
-6.46373e-16
4.40313e-16
-2.36548e-16
0
-5.34435e-16
-1.92918e-17
5.71713e-16
-6.11788e-16
0
-3.38224e-16
0
-3.73681e-16
0
4.19125e-16
1.32349e-17
-4.48895e-16
-1.4462e-21
-7.54508e-18
1.90583e-18
0
-3.7653e-17
3.3988e-17
-1.0007e-16
1.05392e-16
-2.73515e-17
3.2083e-17
0
1.35451e-16
-2.26734e-16
-2.20352e-16
-7.81648e-17
2.45763e-16
1.39878e-16
3.15271e-16
-6.60246e-16
3.45344e-16
0
1.03085e-16
5.64512e-16
2.49339e-17
-4.91355e-16
1.34227e-16
1.4276e-16
0
1.60827e-16
0
1.80346e-16
0
0
-2.12686e-16
4.5734e-16
2.5409e-16
-7.38812e-16
0
0
-2.90793e-16
3.05899e-16
3.21697e-16
3.3823e-16
1.07821e-15
-7.35682e-16
0
8.31821e-16
-4.33829e-16
9.04605e-16
-7.25049e-18
-1.48851e-17
-1.9059e-18
-3.11717e-17
1.17725e-17
-5.03088e-17
1.6399e-18
8.26014e-17
2.73512e-17
-1.69376e-16
1.38827e-16
2.19464e-16
-8.50033e-17
1.67699e-16
-1.06495e-16
-6.39717e-17
-6.99381e-17
0
3.4108e-16
-4.3444e-16
-9.59797e-17
0
2.33136e-16
-3.41883e-16
3.90916e-16
-6.58086e-16
-7.27405e-16
7.4433e-16
-3.21651e-16
-3.48191e-16
3.53201e-16
3.89232e-16
-1.85453e-16
-2.04509e-16
-2.24369e-16
0
-2.58385e-16
5.15757e-16
0
2.9079e-16
0
-6.43388e-16
3.49381e-16
-1.05532e-15
0
-3.92711e-16
4.2543e-22
-4.33649e-16
6.96237e-18
7.06362e-18
0
3.81168e-18
5.82271e-18
-3.76562e-17
6.20524e-17
0
0
0
3.20834e-17
0
0
-1.58256e-21
1.05257e-16
-5.82056e-17
6.39728e-17
0
3.15274e-16
1.04472e-16
1.11642e-16
1.19068e-16
-5.03702e-16
1.1045e-16
1.18085e-16
2.15097e-21
1.34225e-16
2.21787e-21
-1.51622e-16
1.60828e-16
6.96421e-16
-5.26097e-16
-1.90695e-16
8.13972e-16
-2.0453e-16
-2.32971e-16
7.00984e-16
5.07659e-16
-5.15782e-16
2.7634e-16
0
3.05899e-16
6.54193e-16
-3.27337e-16
0
7.59378e-16
-3.80594e-16
-1.25097e-15
2.60229e-15
-8.9783e-16
-4.78886e-16
0
-3.81148e-18
-5.82264e-18
-9.86212e-18
3.62734e-17
-1.46732e-16
1.82241e-16
-9.92195e-18
-1.51549e-16
0
0
-4.72342e-17
1.15063e-16
-2.22892e-16
-6.39681e-17
-2.90275e-16
6.09024e-16
-8.25169e-16
-1.11636e-16
3.72446e-16
-3.21168e-16
3.1928e-16
-2.36164e-16
1.26004e-16
-1.34224e-16
7.27389e-16
-5.92696e-16
0
-8.66757e-16
1.0823e-15
-5.56657e-16
-2.01466e-16
-6.46367e-16
2.15941e-16
-2.36547e-16
0
-2.62498e-16
-5.52671e-16
0
-6.11787e-16
3.21693e-16
-1.36405e-15
-2.28586e-17
3.6197e-16
-3.92708e-16
0
1.33938e-17
-1.35348e-15
-4.78878e-16
0
-2.8811e-17
-3.13444e-17
-2.21365e-17
1.10067e-16
-1.6347e-16
3.64579e-16
6.22035e-17
-2.06905e-16
-1.57056e-16
1.5883e-16
-1.98544e-16
2.53466e-16
0
6.39694e-17
0
-3.15258e-16
6.05349e-17
4.34452e-16
-3.95562e-16
4.00601e-16
5.64496e-16
-3.41902e-16
0
-5.5017e-16
1.14232e-15
-5.92731e-16
0
1.70393e-16
1.80343e-16
-7.7849e-16
7.90023e-16
0
1.13904e-15
-9.28851e-16
0
2.62503e-16
-2.86097e-16
5.71733e-16
3.05898e-16
6.54183e-16
-3.2733e-16
0
3.73688e-16
-4.05158e-16
-2.54958e-17
1.28791e-15
9.25349e-16
-4.6478e-16
5.03299e-16
0
-1.16385e-17
0
-2.80473e-17
0
0
-5.46829e-17
-2.74508e-16
2.77575e-16
0
-2.92934e-16
4.21065e-16
-2.22859e-16
1.38209e-16
-5.59554e-16
6.08955e-16
-4.84046e-16
0
0
-4.24215e-16
4.29689e-16
0
0
0
-2.85487e-16
0
3.21622e-16
3.40759e-16
-3.60659e-16
-3.81359e-16
-4.02904e-16
-4.41995e-16
8.80574e-16
4.73067e-16
4.9847e-16
0
-1.11504e-15
5.71688e-16
6.11761e-16
0
-6.76424e-16
7.11052e-16
0
7.85394e-16
0
-8.67276e-16
4.5569e-16
9.57747e-16
-5.03295e-16
-3.80915e-18
1.16387e-17
9.49815e-17
-9.59853e-17
0
0
2.4425e-21
-6.41424e-17
3.14032e-16
3.72563e-17
-5.67006e-16
4.01596e-16
-1.16382e-16
6.60204e-16
-5.3866e-16
-1.52198e-16
1.64984e-16
0
-1.91931e-16
-2.0614e-16
0
-2.36141e-16
2.6491e-16
-5.23831e-16
2.85492e-16
-3.03211e-16
-3.21627e-16
1.48299e-17
-3.45711e-16
3.81365e-16
3.75391e-21
-3.81434e-21
9.14618e-16
-1.87494e-15
-4.02223e-21
-5.24978e-16
5.52654e-16
5.81554e-16
-4.3675e-21
-6.43363e-16
1.36404e-15
2.2855e-17
-1.483e-15
-4.70028e-21
-8.38256e-16
8.54227e-16
9.11375e-16
1.45075e-17
-1.99851e-15
3.80915e-18
0
9.49431e-17
6.07127e-17
-2.93351e-16
1.65127e-16
1.09356e-16
6.41424e-17
-7.39081e-17
-2.70785e-16
2.64399e-16
-1.05224e-16
1.16382e-16
0
2.90232e-16
-2.93744e-16
1.64974e-16
0
1.91931e-16
-4.24201e-16
6.50543e-16
2.36141e-16
7.68849e-16
2.94707e-16
-5.57579e-16
9.23627e-16
2.85444e-17
1.45482e-17
3.75904e-16
-7.47309e-16
1.22488e-15
-8.34338e-16
4.65884e-16
1.73656e-17
-1.01522e-15
1.55644e-15
-5.5264e-16
-8.95771e-21
-9.16612e-21
6.43363e-16
-6.7642e-16
1.15555e-17
1.51837e-15
-1.55866e-15
0
8.67284e-16
-1.82274e-15
0
9.00498e-21
0
-1.16417e-17
9.493e-17
6.07204e-17
-2.93329e-16
1.1959e-16
-5.46744e-17
-3.38637e-16
6.65439e-16
-4.01532e-16
0
1.05224e-16
0
5.32232e-16
4.18554e-17
-4.35307e-16
-1.64975e-16
-7.35552e-16
7.44804e-16
-2.11586e-20
1.22299e-17
2.49342e-17
-7.43264e-16
2.81678e-16
-8.43082e-16
0
3.35997e-16
-1.00772e-15
3.60653e-16
0
0
-8.50689e-16
4.48703e-16
-1.43691e-15
4.80558e-16
-1.59381e-15
5.14056e-16
-1.20299e-15
5.91375e-16
6.43382e-16
6.7642e-16
-7.11077e-16
-7.47336e-16
-7.8542e-16
1.66359e-15
-8.67579e-16
1.80914e-15
1.93002e-15
2.97965e-17
0
1.16417e-17
-1.97252e-17
-2.80527e-17
-1.63479e-16
1.14225e-17
2.01531e-16
6.41527e-17
0
-4.3897e-16
-3.81155e-17
4.01697e-16
4.85774e-16
-1.02392e-15
9.79517e-16
-5.87663e-16
0
0
-3.95576e-16
1.82476e-16
1.10472e-15
-4.60001e-16
-1.69188e-20
0
2.85505e-16
-6.20512e-16
1.60857e-15
-6.67065e-16
0
-3.81399e-16
8.22074e-16
-1.27651e-15
1.79537e-15
-9.28876e-16
1.01533e-15
-5.06573e-16
0
5.81576e-16
-6.11809e-16
-1.95178e-15
-7.20616e-16
1.39961e-15
-7.47391e-16
7.85424e-16
-8.25361e-16
-8.67306e-16
-9.25359e-16
9.58203e-16
1.46724e-17
0
1.16484e-17
-4.76987e-21
0
3.66677e-17
0
5.471e-17
6.41732e-17
0
4.3892e-16
-2.64461e-16
-4.4065e-16
4.45804e-16
5.32343e-16
-8.39531e-16
7.39849e-16
0
-5.57409e-16
7.44922e-16
-6.42352e-16
1.08039e-15
0
-1.28873e-17
1.07402e-15
-1.14229e-15
8.95973e-16
0
3.40807e-16
0
-1.59484e-20
-4.19082e-16
8.34397e-16
-4.65894e-16
9.28834e-16
-5.16761e-16
5.065e-16
1.12485e-15
6.21476e-16
6.53021e-16
-6.22284e-16
6.76462e-16
1.44527e-15
2.34395e-17
0
0
0
0
9.72255e-16
2.97915e-17
0
-1.16487e-17
1.97301e-17
1.56847e-16
-1.66823e-16
4.55504e-17
4.48952e-21
-6.41747e-17
-3.14212e-16
3.17763e-16
-9.44823e-17
-1.05275e-16
-4.85873e-16
1.15208e-15
-1.25949e-15
4.35528e-16
-6.82322e-16
5.12534e-16
1.91985e-16
-2.06187e-16
-4.4184e-16
0
-2.52033e-16
0
5.84748e-16
-8.96076e-16
-3.36115e-16
3.26316e-16
-7.36724e-16
3.50317e-16
1.61227e-15
-1.70201e-15
4.31981e-16
0
-4.98534e-16
1.05009e-15
-1.12498e-15
5.61952e-16
1.24455e-15
-1.26582e-15
0
7.11125e-16
-7.47413e-16
0
-1.66375e-15
8.54304e-16
1.39507e-17
9.86412e-16
-3.0203e-15
3.81343e-18
0
9.50005e-17
-2.52765e-16
1.30067e-16
-4.55491e-17
-5.47142e-17
0
7.39546e-17
8.40528e-17
3.97103e-16
1.44276e-16
-9.31624e-16
-1.68831e-16
-4.18563e-17
7.39909e-16
0
0
-1.91979e-16
0
4.41839e-16
-7.33672e-16
2.01662e-15
-1.59797e-15
8.5681e-16
2.77618e-17
-2.93131e-16
-3.26243e-16
-7.36651e-16
-3.10995e-17
-1.58867e-17
-8.67427e-16
-3.40145e-17
1.402e-15
0
-5.25035e-16
-5.5271e-16
0
0
1.30838e-15
-1.33113e-15
1.44532e-15
7.94783e-16
-3.14235e-15
-5.09881e-17
8.27771e-16
2.73455e-15
-1.90143e-15
-1.50835e-17
-3.81356e-18
0
0
0
0
0
0
-2.74729e-16
2.03842e-16
-8.40556e-17
-3.97223e-16
-3.90048e-17
4.45976e-16
0
0
4.78424e-16
-1.32076e-15
6.90827e-16
7.91296e-16
-8.01376e-16
-1.12921e-15
6.8395e-16
0
0
-2.99213e-16
5.92832e-16
0
-3.40829e-16
7.36744e-16
-1.5261e-15
1.19311e-15
8.67527e-16
-8.80772e-16
-4.73146e-16
0
0
5.52729e-16
1.18346e-15