/*--------------------------------*- C++ -*----------------------------------*\
  =========                 |
  \\      /  F ield         | OpenFOAM: The Open Source CFD Toolbox
   \\    /   O peration     | Website:  https://openfoam.org
    \\  /    A nd           | Version:  6
     \\/     M anipulation  |
\*---------------------------------------------------------------------------*/
FoamFile
{
    version     2.0;
    format      ascii;
    class       volScalarField;
    location    "30";
    object      gradTx;
}
// * * * * * * * * * * * * * * * * * * * * * * * * * * * * * * * * * * * * * //

dimensions      [0 -1 0 1 0 0 0];

internalField   nonuniform List<scalar> 
13524
(
3.14785
3.18145
3.21539
3.24986
3.2849
3.32058
3.357
3.39417
3.43216
3.471
3.51071
3.55133
3.59289
3.63542
3.67898
3.7236
3.76932
3.81616
3.86418
3.91342
3.96393
4.01575
4.06894
4.12357
4.17968
4.23735
4.29662
4.35757
4.42028
4.48483
4.55131
4.61979
4.69036
4.7631
4.83812
4.91555
4.99549
5.07808
5.16343
5.25169
5.34304
5.43765
5.5357
5.63742
5.74309
5.85307
5.96797
6.08917
6.22058
3.15877
3.18821
3.21992
3.25312
3.28744
3.32272
3.35887
3.39589
3.43379
3.47257
3.51224
3.55284
3.59439
3.63693
3.68049
3.72511
3.77084
3.8177
3.86574
3.915
3.96552
4.01736
4.07057
4.12522
4.18135
4.23904
4.29834
4.35932
4.42206
4.48663
4.55313
4.62163
4.69222
4.76499
4.84005
4.91752
4.99749
5.0801
5.16548
5.25379
5.34517
5.43981
5.5379
5.63965
5.74529
5.85512
5.96939
6.08801
6.20881
3.26325
3.29844
3.33323
3.36836
3.40415
3.44072
3.47813
3.5164
3.55558
3.59569
3.63675
3.67875
3.72175
3.76579
3.8109
3.8571
3.90443
3.95294
4.00267
4.05367
4.10599
4.15967
4.21477
4.27135
4.32946
4.38919
4.45058
4.51373
4.5787
4.64557
4.71442
4.78534
4.85842
4.93377
5.01149
5.09169
5.1745
5.26004
5.34844
5.43987
5.53448
5.63245
5.73397
5.83924
5.94849
6.06197
6.18001
6.30334
6.43459
3.31196
3.34338
3.37689
3.41179
3.44776
3.48469
3.52253
3.56129
3.60096
3.64157
3.68313
3.72567
3.76921
3.8138
3.85948
3.90627
3.95421
4.00333
4.0537
4.10535
4.15833
4.21269
4.26849
4.3258
4.38466
4.44515
4.50733
4.57127
4.63705
4.70477
4.7745
4.84634
4.92037
4.99668
5.07538
5.1566
5.24045
5.32708
5.41661
5.50919
5.60499
5.70418
5.80694
5.91345
6.02391
6.13848
6.2572
6.3797
6.50343
3.37013
3.40688
3.44315
3.47971
3.51687
3.55477
3.5935
3.63312
3.67364
3.7151
3.75752
3.80094
3.84539
3.89089
3.93749
3.98521
4.03412
4.08425
4.13564
4.18834
4.24239
4.29784
4.35476
4.41321
4.47328
4.535
4.59845
4.66369
4.7308
4.79988
4.87101
4.94429
5.01981
5.09766
5.17796
5.26082
5.34637
5.43474
5.52607
5.62052
5.71824
5.81941
5.9242
6.03281
6.1454
6.26217
6.38332
6.50943
6.64313
3.45337
3.48671
3.52215
3.55896
3.59682
3.6356
3.67528
3.71586
3.75736
3.79981
3.84323
3.88765
3.93313
3.9797
4.02737
4.07619
4.12622
4.17749
4.23006
4.28397
4.33925
4.39598
4.45421
4.514
4.57542
4.63854
4.70342
4.77016
4.83882
4.90949
4.98225
5.0572
5.13444
5.21406
5.29619
5.38094
5.46844
5.55883
5.65225
5.74885
5.84879
5.95227
6.05945
6.17052
6.28566
6.40499
6.52851
6.65574
6.78391
3.47066
3.5092
3.54719
3.58536
3.62406
3.66345
3.70361
3.74462
3.78653
3.82937
3.87318
3.91799
3.96383
4.01075
4.05881
4.10804
4.15847
4.21014
4.26312
4.31744
4.37315
4.43033
4.48902
4.5493
4.61121
4.67483
4.74022
4.80746
4.87665
4.94786
5.0212
5.09674
5.17459
5.25484
5.33761
5.42302
5.51121
5.60231
5.69646
5.79382
5.89455
5.99885
6.1069
6.21888
6.33502
6.4555
6.58059
6.71083
6.84847
3.58079
3.61686
3.65455
3.69334
3.73305
3.77361
3.81501
3.85729
3.90049
3.94464
3.9898
4.03598
4.08321
4.13156
4.18107
4.23178
4.28372
4.33696
4.39155
4.44751
4.50491
4.5638
4.62425
4.68633
4.75011
4.81565
4.88303
4.95231
5.02359
5.09694
5.17248
5.25029
5.33049
5.41316
5.49842
5.5864
5.67725
5.7711
5.86809
5.96839
6.07218
6.17965
6.29099
6.40644
6.52621
6.65055
6.77963
6.91339
7.05045
3.57653
3.61549
3.65449
3.69389
3.73387
3.77454
3.816
3.85832
3.90154
3.94571
3.99086
4.03703
4.08429
4.13267
4.18219
4.23291
4.28486
4.3381
4.39269
4.44867
4.5061
4.56501
4.62549
4.68759
4.75138
4.81693
4.88431
4.95361
5.02491
5.09829
5.17386
5.2517
5.33191
5.4146
5.49988
5.58789
5.67877
5.77264
5.86966
5.97
6.07383
6.18135
6.29277
6.40833
6.52829
6.65297
6.78276
6.91821
7.05999
3.68752
3.72736
3.76723
3.80756
3.84855
3.89031
3.93293
3.97645
4.02094
4.06642
4.11293
4.1605
4.20917
4.259
4.31003
4.3623
4.41585
4.47072
4.52698
4.58467
4.64383
4.70454
4.76686
4.83087
4.89662
4.96418
5.03363
5.10504
5.17851
5.25413
5.33201
5.41223
5.49489
5.58011
5.668
5.75871
5.85236
5.9491
6.04909
6.1525
6.25952
6.37033
6.48518
6.60429
6.72797
6.85659
6.99071
7.13153
7.2825
3.7056
3.74094
3.77862
3.81787
3.85832
3.89982
3.94232
3.9858
4.03029
4.0758
4.12237
4.17003
4.21881
4.26874
4.31986
4.37223
4.42589
4.48089
4.53728
4.5951
4.65441
4.71526
4.77772
4.84186
4.90775
4.97546
5.04507
5.11666
5.1903
5.2661
5.34415
5.42455
5.5074
5.59281
5.68091
5.77181
5.86568
5.96264
6.06286
6.1665
6.27375
6.3848
6.49988
6.61922
6.74307
6.87172
7.00536
7.14383
7.28467
3.77748
3.81821
3.85862
3.89945
3.94101
3.98344
4.02683
4.07121
4.11662
4.16307
4.2106
4.25925
4.30904
4.36004
4.41226
4.46575
4.52056
4.57672
4.63431
4.69336
4.75393
4.81608
4.87989
4.94541
5.01272
5.08188
5.15297
5.22608
5.30129
5.37871
5.45843
5.54055
5.62518
5.71242
5.80239
5.89525
5.99112
6.09015
6.19251
6.29836
6.40788
6.52128
6.63878
6.76059
6.88696
7.01815
7.15451
7.29673
7.44746
3.81874
3.85564
3.89467
3.93515
3.97679
4.01947
4.06318
4.10791
4.1537
4.20058
4.24854
4.29762
4.34785
4.39929
4.45197
4.50594
4.56124
4.61792
4.67603
4.73562
4.79674
4.85944
4.92381
4.98992
5.05783
5.12762
5.19936
5.27313
5.34902
5.42714
5.50757
5.59044
5.67582
5.76385
5.85464
5.94833
6.04506
6.14498
6.24825
6.35504
6.46554
6.57994
6.69844
6.82126
6.94862
7.08071
7.21764
7.3591
7.50277
3.85957
3.90128
3.94269
3.98452
4.02707
4.07048
4.11485
4.1602
4.20659
4.25407
4.30265
4.35237
4.40326
4.45537
4.50873
4.56339
4.61938
4.67678
4.73563
4.79598
4.85788
4.9214
4.98659
5.05355
5.12232
5.193
5.26565
5.34036
5.41723
5.49634
5.5778
5.66172
5.7482
5.83735
5.92929
6.02418
6.12215
6.22335
6.32794
6.43608
6.54798
6.66382
6.78381
6.90815
7.03707
7.17078
7.30959
7.45413
7.60698
3.91924
3.95757
3.99795
4.03973
4.08264
4.1266
4.17159
4.21762
4.26471
4.31287
4.36214
4.41255
4.46416
4.517
4.57112
4.62654
4.68333
4.74154
4.80121
4.86239
4.92514
4.98953
5.05564
5.12352
5.19326
5.26491
5.33857
5.41432
5.49224
5.57245
5.65505
5.74013
5.82781
5.91819
6.01141
6.10762
6.20694
6.30954
6.41558
6.52523
6.63868
6.75613
6.87778
7.00384
7.13453
7.27002
7.41043
7.55547
7.70302
3.93557
3.97816
4.02058
4.06345
4.10704
4.15149
4.19688
4.24327
4.2907
4.33922
4.38884
4.4396
4.49155
4.54473
4.59919
4.65496
4.7121
4.77067
4.83072
4.89229
4.95544
5.02023
5.08673
5.15503
5.22519
5.2973
5.37141
5.44762
5.52603
5.60673
5.68984
5.77544
5.86366
5.9546
6.0484
6.1452
6.24514
6.34838
6.45508
6.56541
6.67957
6.79776
6.9202
7.04708
7.17865
7.31515
7.45684
7.60433
7.7599
4.00749
4.04728
4.08903
4.13213
4.17635
4.22159
4.26782
4.31506
4.36334
4.41271
4.46321
4.51486
4.56771
4.62182
4.67721
4.73395
4.79207
4.85163
4.9127
4.97532
5.03954
5.10544
5.17308
5.24254
5.3139
5.38722
5.4626
5.5401
5.61984
5.70192
5.78644
5.8735
5.96321
6.0557
6.15109
6.24954
6.35118
6.45618
6.5647
6.67692
6.79304
6.91328
7.03784
7.16697
7.3009
7.43987
7.58403
7.73312
7.88504
4.00492
4.04877
4.09246
4.13652
4.18124
4.22676
4.27318
4.32057
4.36899
4.41847
4.46906
4.5208
4.57374
4.62792
4.6834
4.74022
4.79842
4.85808
4.91923
4.98194
5.04625
5.11223
5.17996
5.24952
5.32097
5.3944
5.46987
5.54749
5.62733
5.70952
5.79415
5.88133
5.97117
6.06378
6.15931
6.25789
6.35967
6.46481
6.57349
6.68588
6.80218
6.92261
7.04741
7.17681
7.3111
7.4506
7.59572
7.74718
7.90688
4.0802
4.1231
4.16682
4.21137
4.25677
4.30306
4.35028
4.39851
4.4478
4.49818
4.54969
4.60237
4.65626
4.71143
4.76792
4.82576
4.88502
4.94575
5.00801
5.07185
5.13732
5.2045
5.27345
5.34427
5.41701
5.49176
5.5686
5.64762
5.72891
5.81258
5.89875
5.9875
6.07896
6.17325
6.2705
6.37086
6.47449
6.58154
6.69219
6.80662
6.92504
7.04768
7.17477
7.30658
7.44341
7.58561
7.73361
7.88806
8.0501
4.0833
4.125
4.16805
4.21221
4.25738
4.30355
4.3507
4.39889
4.44814
4.49849
4.54999
4.60265
4.65654
4.71171
4.76819
4.82604
4.8853
4.94603
5.00829
5.07214
5.13761
5.20479
5.27375
5.34457
5.41732
5.49208
5.56892
5.64794
5.72924
5.81292
5.89909
5.98786
6.07932
6.17362
6.27088
6.37125
6.47489
6.58195
6.69261
6.80705
6.92549
7.04815
7.17527
7.30711
7.44396
7.58615
7.73401
7.88778
8.04682
4.14172
4.18601
4.23045
4.27551
4.32139
4.36819
4.416
4.46486
4.5148
4.56587
4.61811
4.67154
4.72623
4.78221
4.83952
4.89823
4.95836
5.02
5.08319
5.14799
5.21444
5.28263
5.35262
5.42449
5.49833
5.57421
5.6522
5.73241
5.81492
5.89985
5.98731
6.0774
6.17024
6.26595
6.36466
6.46654
6.57172
6.68039
6.79271
6.90887
7.02907
7.15356
7.28257
7.41635
7.55521
7.69947
7.84953
8.00614
8.17139
4.15504
4.19631
4.23943
4.2839
4.32954
4.37624
4.42402
4.47288
4.52286
4.57399
4.62628
4.67979
4.73455
4.79062
4.84802
4.90682
4.96706
5.0288
5.09209
5.157
5.22357
5.29187
5.36198
5.43398
5.50795
5.58396
5.66209
5.74243
5.82509
5.91017
5.99778
6.08803
6.18103
6.27691
6.3758
6.47785
6.58322
6.69207
6.80458
6.92094
7.04135
7.16603
7.29524
7.4292
7.5682
7.7125
7.86231
8.01759
8.17684
4.19507
4.23963
4.28439
4.32981
4.3761
4.42336
4.47165
4.52102
4.57151
4.62316
4.676
4.73007
4.7854
4.84205
4.90007
4.95949
5.02036
5.08276
5.14673
5.21233
5.27961
5.34864
5.41951
5.49228
5.56704
5.64386
5.72283
5.80403
5.88758
5.97357
6.06212
6.15334
6.24734
6.34424
6.44419
6.54734
6.65383
6.76385
6.87756
6.99516
7.11684
7.24284
7.37339
7.50874
7.64914
7.79489
7.94631
8.10396
8.26961
4.21333
4.2556
4.29949
4.34464
4.3909
4.43823
4.48665
4.53615
4.5868
4.6386
4.69161
4.74584
4.80135
4.85818
4.91638
4.97599
5.03706
5.09966
5.16384
5.22966
5.29716
5.36642
5.43751
5.51053
5.58553
5.66261
5.74184
5.82332
5.90714
5.99341
6.08226
6.17378
6.26809
6.36531
6.4656
6.56908
6.67593
6.78631
6.90039
7.01836
7.14044
7.26683
7.39778
7.53353
7.67433
7.82043
7.97206
8.12922
8.29086
4.24061
4.28546
4.33065
4.37656
4.42335
4.47111
4.51991
4.5698
4.62082
4.67301
4.7264
4.78103
4.83695
4.8942
4.95282
5.01287
5.0744
5.13745
5.20211
5.26841
5.33641
5.40618
5.4778
5.55135
5.62691
5.70456
5.78438
5.86646
5.9509
6.03781
6.12732
6.21952
6.31452
6.41247
6.51349
6.61774
6.72538
6.83657
6.95149
7.07033
7.19329
7.32061
7.45251
7.58923
7.73104
7.87822
8.03109
8.19018
8.35702
4.26037
4.30352
4.3481
4.39388
4.44073
4.48864
4.53762
4.5877
4.63893
4.69132
4.74492
4.79977
4.8559
4.91337
4.97223
5.03251
5.09428
5.15758
5.22249
5.28905
5.35731
5.42736
5.49926
5.5731
5.64895
5.72691
5.80704
5.88943
5.9742
6.06146
6.15131
6.24387
6.33925
6.43758
6.53899
6.64365
6.75171
6.86333
6.9787
7.098
7.22143
7.34924
7.48164
7.61889
7.76123
7.90895
8.06228
8.22134
8.38549
4.2788
4.32383
4.36936
4.41567
4.46289
4.51111
4.56038
4.61074
4.66223
4.71489
4.76877
4.82389
4.88032
4.93808
4.99723
5.05782
5.11989
5.18352
5.24875
5.31564
5.38425
5.45465
5.52691
5.60112
5.67736
5.7557
5.83623
5.91904
6.00424
6.09194
6.18224
6.27526
6.37112
6.46994
6.57187
6.67705
6.78565
6.89783
7.01377
7.13367
7.25773
7.38617
7.51924
7.65717
7.80024
7.94874
8.10299
8.26349
8.43144
4.2969
4.34081
4.38598
4.43226
4.47959
4.52797
4.57742
4.62797
4.67966
4.73253
4.78662
4.84196
4.89859
4.95658
5.01595
5.07677
5.13908
5.20295
5.26842
5.33557
5.40444
5.4751
5.54763
5.62212
5.69864
5.77728
5.85811
5.94123
6.02675
6.11477
6.20542
6.29879
6.395
6.49419
6.5965
6.70208
6.81108
6.92369
7.04007
7.16041
7.28494
7.41387
7.54744
7.6859
7.82952
7.97858
8.13336
8.29407
8.46043
4.3094
4.35446
4.40021
4.44684
4.49443
4.54302
4.59266
4.64339
4.69527
4.74833
4.80261
4.85814
4.91497
4.97315
5.03273
5.09376
5.15628
5.22036
5.28606
5.35343
5.42253
5.49343
5.5662
5.64094
5.71772
5.79662
5.87773
5.96113
6.04693
6.13525
6.22619
6.31988
6.41642
6.51594
6.61859
6.72452
6.83389
6.94687
7.06365
7.1844
7.30935
7.43872
7.57275
7.71169
7.85582
8.00543
8.16085
8.32251
8.49127
4.32346
4.368
4.41363
4.4603
4.50799
4.55672
4.60651
4.65741
4.70946
4.76269
4.81714
4.87284
4.92985
4.98822
5.04798
5.1092
5.17191
5.23619
5.30209
5.36967
5.43898
5.5101
5.5831
5.65806
5.73508
5.81422
5.89557
5.97922
6.06529
6.15387
6.2451
6.33907
6.4359
6.53572
6.63869
6.74494
6.85464
6.96797
7.0851
7.20623
7.33156
7.46133
7.59579
7.73517
7.87977
8.02986
8.18576
8.34774
8.51591
4.33195
4.37695
4.42284
4.46969
4.51752
4.56636
4.61627
4.6673
4.71947
4.77282
4.82739
4.88322
4.94036
4.99886
5.05876
5.1201
5.18296
5.24738
5.31342
5.38115
5.45061
5.52188
5.59503
5.67016
5.74734
5.82666
5.90818
5.99202
6.07826
6.16704
6.25846
6.35263
6.44967
6.54971
6.6529
6.75938
6.86932
6.98289
7.10028
7.22167
7.34728
7.47735
7.6121
7.75181
7.89675
8.04721
8.20351
8.36602
8.53522
4.34049
4.38556
4.43154
4.47848
4.52641
4.57537
4.62539
4.67653
4.72881
4.78228
4.83697
4.89292
4.95017
5.00879
5.06881
5.13028
5.19327
5.25782
5.32399
5.39185
5.46145
5.53287
5.60617
5.68145
5.75879
5.83826
5.91995
6.00395
6.09037
6.17933
6.27093
6.36529
6.46252
6.56276
6.66615
6.77285
6.88301
6.99682
7.11444
7.23608
7.36195
7.49229
7.62733
7.76734
7.9126
8.0634
8.22007
8.38295
8.55252
4.34593
4.39078
4.4367
4.48366
4.53165
4.58068
4.63078
4.68198
4.73433
4.78787
4.84263
4.89865
4.95598
5.01467
5.07476
5.13631
5.19937
5.26399
5.33025
5.39819
5.46788
5.53938
5.61277
5.68813
5.76556
5.84513
5.92691
6.01102
6.09754
6.1866
6.27831
6.37278
6.47013
6.57049
6.67401
6.78083
6.89113
7.00507
7.12284
7.24463
7.37065
7.50115
7.63637
7.77656
7.92202
8.07304
8.22992
8.39297
8.56227
4.34819
4.39377
4.44005
4.4872
4.5353
4.58441
4.63457
4.68582
4.73822
4.79181
4.84662
4.90269
4.96007
5.01881
5.07896
5.14056
5.20367
5.26835
5.33467
5.40266
5.47241
5.54397
5.61742
5.69285
5.77034
5.84997
5.93183
6.016
6.10259
6.19173
6.28351
6.37807
6.4755
6.57594
6.67954
6.78646
6.89685
7.01089
7.12876
7.25065
7.37679
7.5074
7.64274
7.78307
7.92867
8.07985
8.23697
8.40049
8.57134
4.35072
4.39545
4.44138
4.4884
4.53645
4.58554
4.6357
4.68696
4.73938
4.79299
4.84781
4.9039
4.96129
5.02005
5.08021
5.14183
5.20496
5.26966
5.33598
5.404
5.47376
5.54534
5.61881
5.69425
5.77176
5.85142
5.93329
6.01748
6.1041
6.19326
6.28507
6.37964
6.4771
6.57757
6.6812
6.78814
6.89855
7.01262
7.13052
7.25245
7.37862
7.50927
7.64465
7.78501
7.93065
8.08186
8.23897
8.40223
8.57153
4.34817
4.39377
4.44006
4.48721
4.53531
4.58441
4.63456
4.68582
4.73822
4.79181
4.84662
4.90269
4.96007
5.01881
5.07896
5.14056
5.20367
5.26836
5.33467
5.40267
5.47241
5.54397
5.61742
5.69285
5.77034
5.84997
5.93182
6.016
6.10259
6.19173
6.28351
6.37806
6.4755
6.57594
6.67954
6.78646
6.89685
7.01089
7.12876
7.25065
7.37679
7.5074
7.64274
7.78307
7.92867
8.07985
8.23697
8.40049
8.57134
4.34592
4.39078
4.43671
4.48368
4.53166
4.58068
4.63078
4.68198
4.73433
4.78787
4.84263
4.89865
4.95598
5.01467
5.07476
5.13631
5.19937
5.264
5.33025
5.3982
5.46788
5.53938
5.61277
5.68813
5.76556
5.84512
5.92691
6.01101
6.09753
6.18659
6.2783
6.37278
6.47013
6.57049
6.67401
6.78083
6.89113
7.00507
7.12284
7.24463
7.37065
7.50115
7.63637
7.77656
7.92202
8.07303
8.22992
8.39297
8.56227
4.34051
4.38557
4.43154
4.47848
4.52641
4.57537
4.6254
4.67654
4.72881
4.78228
4.83697
4.89292
4.95018
5.00879
5.06881
5.13029
5.19327
5.25782
5.324
5.39185
5.46145
5.53287
5.60617
5.68145
5.75878
5.83825
5.91994
6.00394
6.09036
6.17932
6.27092
6.36528
6.46252
6.56276
6.66615
6.77285
6.88302
6.99682
7.11445
7.23609
7.36196
7.49229
7.62733
7.76734
7.9126
8.0634
8.22006
8.38295
8.55252
4.33196
4.37695
4.42284
4.46968
4.51751
4.56637
4.61629
4.6673
4.71947
4.77282
4.8274
4.88323
4.94037
4.99886
5.05876
5.12011
5.18296
5.24738
5.31342
5.38114
5.4506
5.52187
5.59503
5.67016
5.74734
5.82665
5.90818
5.99201
6.07826
6.16704
6.25846
6.35263
6.44967
6.54971
6.6529
6.75938
6.86932
6.9829
7.10028
7.22167
7.34728
7.47735
7.61211
7.75181
7.89675
8.04721
8.20351
8.36602
8.53522
4.32346
4.368
4.41363
4.4603
4.508
4.55672
4.60651
4.65741
4.70946
4.76269
4.81714
4.87284
4.92985
4.98822
5.04798
5.1092
5.17191
5.23619
5.30209
5.36966
5.43898
5.51009
5.58309
5.65806
5.73507
5.81421
5.89557
5.97922
6.06528
6.15387
6.24509
6.33907
6.4359
6.53572
6.63869
6.74494
6.85464
6.96797
7.0851
7.20623
7.33156
7.46133
7.59579
7.73517
7.87977
8.02986
8.18576
8.34774
8.51591
4.30938
4.35445
4.40022
4.44686
4.49443
4.54301
4.59265
4.64339
4.69527
4.74833
4.8026
4.85813
4.91497
4.97315
5.03273
5.09375
5.15628
5.22036
5.28606
5.35343
5.42253
5.49343
5.5662
5.64094
5.71772
5.79662
5.87773
5.96113
6.04693
6.13525
6.2262
6.31988
6.41642
6.51594
6.61859
6.72452
6.83389
6.94688
7.06365
7.1844
7.30935
7.43872
7.57275
7.71169
7.85582
8.00543
8.16085
8.32251
8.49127
4.2969
4.34081
4.38599
4.43226
4.47959
4.52796
4.57741
4.62797
4.67966
4.73253
4.78662
4.84195
4.89859
4.95657
5.01595
5.07677
5.13908
5.20295
5.26842
5.33557
5.40444
5.4751
5.54763
5.62212
5.69864
5.77728
5.85812
5.94124
6.02675
6.11478
6.20542
6.29879
6.39501
6.4942
6.5965
6.70208
6.81108
6.92369
7.04007
7.16041
7.28494
7.41386
7.54744
7.6859
7.82952
7.97858
8.13336
8.29407
8.46043
4.27881
4.32383
4.36935
4.41566
4.46289
4.51111
4.56038
4.61073
4.66222
4.71489
4.76877
4.82389
4.88032
4.93808
4.99723
5.05782
5.1199
5.18352
5.24875
5.31565
5.38426
5.45465
5.52692
5.60113
5.67736
5.75571
5.83624
5.91905
6.00425
6.09194
6.18225
6.27527
6.37113
6.46994
6.57187
6.67705
6.78565
6.89783
7.01378
7.13367
7.25773
7.38617
7.51924
7.65717
7.80025
7.94874
8.10299
8.26349
8.43144
4.26037
4.30351
4.3481
4.39387
4.44073
4.48864
4.53762
4.5877
4.63893
4.69132
4.74493
4.79977
4.85591
4.91338
4.97223
5.03252
5.09428
5.15759
5.2225
5.28905
5.35732
5.42737
5.49927
5.57311
5.64896
5.72691
5.80704
5.88944
5.97421
6.06147
6.15132
6.24388
6.33926
6.43758
6.539
6.64365
6.75171
6.86333
6.9787
7.098
7.22143
7.34924
7.48164
7.61889
7.76123
7.90894
8.06228
8.22134
8.38548
4.24061
4.28546
4.33065
4.37656
4.42335
4.47111
4.51991
4.5698
4.62082
4.67302
4.72641
4.78103
4.83695
4.8942
4.95283
5.01288
5.0744
5.13746
5.20212
5.26842
5.33642
5.40619
5.47781
5.55136
5.62692
5.70457
5.78439
5.86646
5.9509
6.03782
6.12732
6.21952
6.31453
6.41247
6.51349
6.61774
6.72538
6.83657
6.95149
7.07033
7.19329
7.32061
7.45251
7.58923
7.73104
7.87821
8.03108
8.19017
8.35701
4.21332
4.2556
4.29949
4.34464
4.39091
4.43824
4.48665
4.53616
4.5868
4.63861
4.69161
4.74584
4.80135
4.85818
4.91638
4.97599
5.03707
5.09967
5.16385
5.22966
5.29717
5.36643
5.43752
5.51053
5.58554
5.66262
5.74185
5.82332
5.90714
5.99342
6.08226
6.17378
6.26809
6.36531
6.46559
6.56908
6.67593
6.7863
6.90039
7.01836
7.14043
7.26683
7.39778
7.53352
7.67432
7.82043
7.97205
8.12922
8.29086
4.19507
4.23963
4.2844
4.32982
4.3761
4.42336
4.47166
4.52103
4.57152
4.62317
4.67601
4.73007
4.78541
4.84206
4.90007
4.95949
5.02037
5.08277
5.14674
5.21234
5.27962
5.34865
5.41951
5.49228
5.56704
5.64386
5.72283
5.80404
5.88758
5.97357
6.06212
6.15334
6.24734
6.34424
6.44419
6.54733
6.65383
6.76385
6.87756
6.99515
7.11684
7.24284
7.37339
7.50873
7.64914
7.79489
7.94631
8.10396
8.2696
4.15505
4.19633
4.23944
4.2839
4.32953
4.37624
4.42403
4.47289
4.52287
4.57399
4.62629
4.6798
4.73456
4.79062
4.84803
4.90682
4.96706
5.0288
5.0921
5.157
5.22357
5.29187
5.36198
5.43398
5.50795
5.58396
5.66209
5.74243
5.82509
5.91017
5.99778
6.08803
6.18103
6.2769
6.37579
6.47784
6.58321
6.69207
6.80458
6.92093
7.04134
7.16603
7.29523
7.42919
7.56819
7.71249
7.86231
8.01758
8.17683
4.14174
4.18601
4.23044
4.2755
4.32139
4.3682
4.41601
4.46486
4.5148
4.56588
4.61811
4.67155
4.72623
4.78221
4.83953
4.89823
4.95837
5.02001
5.08319
5.14799
5.21444
5.28263
5.35262
5.42449
5.49833
5.57421
5.6522
5.7324
5.81491
5.89984
5.9873
6.0774
6.17023
6.26594
6.36466
6.46653
6.57172
6.68038
6.7927
6.90886
7.02907
7.15355
7.28256
7.41635
7.5552
7.69946
7.84953
8.00613
8.17139
4.08329
4.125
4.16805
4.21223
4.2574
4.30355
4.35071
4.39889
4.44814
4.4985
4.54999
4.60266
4.65655
4.71171
4.76819
4.82604
4.8853
4.94603
5.00829
5.07213
5.13761
5.20479
5.27375
5.34456
5.41731
5.49207
5.56892
5.64794
5.72923
5.81291
5.89908
5.98784
6.07931
6.17361
6.27087
6.37124
6.47487
6.58194
6.6926
6.80705
6.92549
7.04815
7.17526
7.3071
7.44395
7.58615
7.73401
7.88777
8.04682
4.0802
4.12311
4.16683
4.21138
4.25676
4.30305
4.35028
4.39852
4.44781
4.49819
4.54969
4.60236
4.65626
4.71143
4.76791
4.82576
4.88501
4.94574
5.008
5.07184
5.13731
5.20449
5.27344
5.34426
5.417
5.49175
5.56859
5.64761
5.7289
5.81257
5.89873
5.98749
6.07895
6.17324
6.27049
6.37086
6.47448
6.58153
6.69218
6.80662
6.92504
7.04768
7.17477
7.30658
7.44341
7.58561
7.73361
7.88806
8.0501
4.00493
4.04877
4.09246
4.13652
4.18124
4.22676
4.27319
4.32058
4.36899
4.41846
4.46905
4.52079
4.57373
4.62792
4.6834
4.74021
4.79842
4.85807
4.91922
4.98193
5.04624
5.11222
5.17995
5.24951
5.32096
5.39439
5.46987
5.54748
5.62733
5.70952
5.79415
5.88133
5.97117
6.06378
6.15931
6.25789
6.35967
6.46482
6.57349
6.68589
6.80219
6.92262
7.04741
7.17681
7.3111
7.4506
7.59572
7.74718
7.90688
4.00749
4.04728
4.08903
4.13214
4.17635
4.22158
4.26781
4.31505
4.36334
4.41271
4.46321
4.51486
4.56771
4.62182
4.67721
4.73394
4.79206
4.85163
4.9127
4.97532
5.03954
5.10544
5.17308
5.24254
5.31389
5.38722
5.4626
5.54011
5.61985
5.70192
5.78644
5.8735
5.96322
6.05571
6.1511
6.24955
6.35119
6.45619
6.56471
6.67693
6.79305
6.91328
7.03785
7.16698
7.3009
7.43987
7.58403
7.73313
7.88504
3.93558
3.97817
4.02058
4.06344
4.10703
4.15149
4.19689
4.24328
4.29071
4.33922
4.38884
4.43961
4.49156
4.54474
4.59919
4.65497
4.71211
4.77068
4.83073
4.8923
4.95544
5.02024
5.08674
5.15504
5.22521
5.29731
5.37143
5.44764
5.52605
5.60675
5.68986
5.77547
5.86368
5.95462
6.04842
6.14522
6.24516
6.3484
6.4551
6.56543
6.67959
6.79777
6.9202
7.04709
7.17866
7.31515
7.45684
7.60433
7.75991
3.91924
3.95757
3.99794
4.03973
4.08265
4.12662
4.1716
4.21762
4.2647
4.31287
4.36215
4.41257
4.46418
4.51702
4.57113
4.62656
4.68334
4.74155
4.80122
4.86241
4.92517
4.98956
5.05566
5.12354
5.19327
5.26493
5.33859
5.41434
5.49226
5.57247
5.65507
5.74015
5.82783
5.91821
6.01144
6.10764
6.20696
6.30956
6.4156
6.52524
6.63869
6.75613
6.87778
7.00384
7.13452
7.27002
7.41042
7.55546
7.70302
3.85957
3.90129
3.94271
3.98453
4.02707
4.07048
4.11484
4.1602
4.20661
4.25409
4.30266
4.35238
4.40326
4.45537
4.50873
4.56339
4.6194
4.6768
4.73565
4.796
4.8579
4.92141
4.98661
5.05356
5.12234
5.19302
5.26567
5.34038
5.41724
5.49635
5.57782
5.66174
5.74822
5.83736
5.92931
6.02419
6.12216
6.22335
6.32794
6.43609
6.54798
6.66381
6.7838
6.90814
7.03706
7.17078
7.30958
7.45413
7.60698
3.81875
3.85565
3.89467
3.93515
3.97678
4.01947
4.06319
4.10793
4.15372
4.20058
4.24854
4.29762
4.34786
4.3993
4.45199
4.50596
4.56125
4.61793
4.67604
4.73563
4.79674
4.85946
4.92383
4.98993
5.05784
5.12763
5.19937
5.27314
5.34903
5.42714
5.50759
5.59045
5.67583
5.76386
5.85465
5.94833
6.04506
6.14498
6.24826
6.35504
6.46554
6.57993
6.69843
6.82126
6.94861
7.0807
7.21763
7.3591
7.50276
3.77749
3.81822
3.85862
3.89945
3.94101
3.98345
4.02684
4.07122
4.11662
4.16307
4.21061
4.25926
4.30906
4.36005
4.41227
4.46575
4.52055
4.57673
4.63432
4.69337
4.75394
4.81609
4.87989
4.94541
5.01271
5.08188
5.15297
5.22608
5.30129
5.37871
5.45843
5.54055
5.62518
5.71241
5.80239
5.89524
5.99111
6.09014
6.1925
6.29834
6.40786
6.52127
6.63876
6.76057
6.88693
7.01813
7.15449
7.29671
7.44745
3.70562
3.74095
3.77863
3.81788
3.85832
3.89982
3.94232
3.98581
4.0303
4.07581
4.12238
4.17004
4.21881
4.26874
4.31987
4.37225
4.4259
4.4809
4.53729
4.59511
4.65441
4.71526
4.77772
4.84186
4.90776
4.97548
5.04508
5.11666
5.1903
5.26609
5.34414
5.42455
5.5074
5.59281
5.6809
5.77181
5.86567
5.96263
6.06285
6.16648
6.27373
6.38478
6.49986
6.6192
6.74306
6.8717
7.00535
7.14382
7.28466
3.68752
3.72736
3.76723
3.80756
3.84856
3.89032
3.93294
3.97646
4.02094
4.06642
4.11293
4.1605
4.20918
4.25901
4.31004
4.3623
4.41584
4.47072
4.52698
4.58467
4.64384
4.70455
4.76687
4.83086
4.89661
4.96417
5.03362
5.10503
5.1785
5.25413
5.332
5.41222
5.49488
5.58009
5.66799
5.75869
5.85234
5.94908
6.04907
6.15248
6.25949
6.37031
6.48515
6.60427
6.72796
6.85658
6.9907
7.13152
7.28249
3.57653
3.61549
3.6545
3.6939
3.73387
3.77455
3.81601
3.85832
3.90154
3.94571
3.99086
4.03704
4.08429
4.13266
4.18218
4.2329
4.28485
4.3381
4.3927
4.44868
4.50609
4.565
4.62547
4.68757
4.75136
4.81692
4.88431
4.9536
5.02489
5.09827
5.17384
5.25167
5.33188
5.41457
5.49985
5.58786
5.67873
5.77261
5.86963
5.96997
6.0738
6.18133
6.29275
6.40831
6.52828
6.65296
6.78275
6.9182
7.05998
3.5808
3.61686
3.65455
3.69335
3.73305
3.77361
3.81501
3.8573
3.9005
3.94466
3.9898
4.03597
4.08321
4.13156
4.18107
4.23178
4.28372
4.33695
4.39153
4.4475
4.5049
4.56379
4.62424
4.68632
4.7501
4.81564
4.88301
4.95229
5.02356
5.09691
5.17246
5.25027
5.33046
5.41313
5.49839
5.58637
5.67722
5.77107
5.86806
5.96837
6.07216
6.17963
6.29098
6.40643
6.52621
6.65054
6.77963
6.91339
7.05045
3.47066
3.50921
3.5472
3.58537
3.62407
3.66345
3.70362
3.74463
3.78654
3.82938
3.87318
3.91798
3.96383
4.01077
4.05882
4.10804
4.15846
4.21014
4.26312
4.31744
4.37316
4.43033
4.48902
4.54928
4.6112
4.67482
4.74022
4.80747
4.87665
4.94786
5.0212
5.09674
5.17458
5.25482
5.33759
5.42301
5.51119
5.60229
5.69645
5.79381
5.89455
5.99886
6.10691
6.2189
6.33503
6.45551
6.58059
6.71083
6.84847
3.45338
3.48671
3.52215
3.55896
3.59681
3.6356
3.67527
3.71585
3.75736
3.79981
3.84324
3.88767
3.93314
3.9797
4.02737
4.07619
4.12622
4.17749
4.23006
4.28396
4.33925
4.39598
4.45421
4.514
4.57543
4.63856
4.70345
4.77018
4.83883
4.90949
4.98225
5.05721
5.13445
5.21407
5.2962
5.38095
5.46845
5.55884
5.65226
5.74886
5.84882
5.9523
6.05948
6.17055
6.28568
6.405
6.52852
6.65574
6.78391
3.37012
3.40687
3.44315
3.47971
3.51687
3.55478
3.59352
3.63313
3.67365
3.71511
3.75754
3.80095
3.84539
3.8909
3.93749
3.98522
4.03413
4.08425
4.13565
4.18834
4.2424
4.29785
4.35478
4.41325
4.47331
4.53502
4.59847
4.6637
4.73082
4.7999
4.87104
4.94433
5.01984
5.09769
5.17798
5.26084
5.34639
5.43476
5.5261
5.62055
5.71828
5.81945
5.92424
6.03284
6.14543
6.26218
6.38332
6.50943
6.64312
3.31196
3.34338
3.3769
3.4118
3.44778
3.4847
3.52255
3.5613
3.60097
3.64158
3.68315
3.72569
3.76924
3.81383
3.8595
3.90628
3.95422
4.00335
4.05372
4.10537
4.15836
4.21272
4.26852
4.32582
4.38469
4.44518
4.50737
4.57131
4.6371
4.70482
4.77455
4.84638
4.92039
4.9967
5.0754
5.15662
5.24048
5.3271
5.41664
5.50922
5.60502
5.70421
5.80697
5.91348
6.02394
6.13849
6.2572
6.37969
6.5034
3.26326
3.29844
3.33323
3.36837
3.40416
3.44072
3.47813
3.51642
3.55561
3.59571
3.63676
3.67877
3.72178
3.76581
3.81091
3.85711
3.90444
3.95295
4.00269
4.05369
4.10601
4.15968
4.21478
4.27136
4.32949
4.38923
4.45063
4.51377
4.57873
4.64559
4.71444
4.78537
4.85846
4.9338
5.01152
5.09171
5.17452
5.26005
5.34847
5.4399
5.53451
5.63248
5.734
5.83927
5.94851
6.06198
6.18001
6.30332
6.43456
3.15878
3.18821
3.21992
3.25312
3.28744
3.32272
3.35889
3.39591
3.4338
3.47257
3.51225
3.55284
3.5944
3.63694
3.6805
3.72512
3.77084
3.8177
3.86574
3.915
3.96552
4.01736
4.07058
4.12522
4.18136
4.23905
4.29836
4.35934
4.42207
4.48665
4.55314
4.62164
4.69223
4.765
4.84005
4.91751
4.99748
5.08009
5.16549
5.25379
5.34518
5.43982
5.53791
5.63966
5.7453
5.85512
5.96937
6.08798
6.20877
3.14784
3.18146
3.2154
3.24985
3.28489
3.32059
3.357
3.39419
3.43218
3.47101
3.51072
3.55134
3.5929
3.63544
3.679
3.72361
3.76932
3.81616
3.86418
3.91342
3.96393
4.01575
4.06894
4.12357
4.17969
4.23735
4.29663
4.35759
4.4203
4.48485
4.55132
4.61979
4.69035
4.76309
4.83811
4.91554
4.99548
5.07806
5.16341
5.25169
5.34304
5.43765
5.53571
5.63743
5.74309
5.85306
5.96795
6.08912
6.22052
2.99179
3.02667
3.06055
3.0942
3.12803
3.16232
3.19718
3.23271
3.26898
3.30602
3.34388
3.3826
3.4222
3.46272
3.50422
3.54673
3.59028
3.63491
3.68065
3.72754
3.77565
3.82501
3.87568
3.92771
3.98116
4.03608
4.09254
4.15059
4.21033
4.27183
4.33515
4.40038
4.46759
4.53687
4.60834
4.6821
4.75824
4.83689
4.91818
5.00224
5.08925
5.17934
5.2727
5.36952
5.47002
5.57446
5.68319
5.79673
5.91622
3.00029
3.02987
3.06127
3.09374
3.12704
3.16108
3.19581
3.23127
3.26749
3.30451
3.34236
3.38104
3.42061
3.46113
3.50263
3.54513
3.58865
3.63324
3.67895
3.72583
3.77392
3.82327
3.87392
3.92592
3.97934
4.03423
4.09067
4.14871
4.20843
4.2699
4.33318
4.39837
4.46554
4.53481
4.60624
4.67996
4.75606
4.83466
4.91591
4.99994
5.08688
5.17689
5.27014
5.3668
5.46703
5.57093
5.67846
5.78895
5.89925
2.87381
2.90554
2.93684
2.96836
3.00035
3.03293
3.06617
3.10013
3.13483
3.17031
3.20657
3.24366
3.28162
3.32049
3.3603
3.40105
3.44279
3.48557
3.52943
3.57441
3.62055
3.66788
3.71647
3.76635
3.8176
3.87027
3.92442
3.9801
4.03739
4.09635
4.15706
4.2196
4.28405
4.3505
4.41902
4.48973
4.56273
4.63815
4.7161
4.79669
4.88008
4.96641
5.05583
5.14849
5.24452
5.34405
5.44719
5.5543
5.66747
2.83413
2.86128
2.89019
2.92028
2.95125
2.983
3.01552
3.0488
3.08283
3.11765
3.15326
3.18972
3.22704
3.26525
3.30437
3.34442
3.38546
3.42753
3.47067
3.5149
3.56027
3.6068
3.65457
3.70363
3.75404
3.80584
3.85908
3.91383
3.97016
4.02814
4.08784
4.14935
4.21273
4.27806
4.34544
4.41497
4.48677
4.56093
4.63757
4.71682
4.79882
4.88372
4.97164
5.06275
5.15716
5.25499
5.35621
5.46043
5.56543
2.74908
2.77885
2.80828
2.83798
2.86819
2.89905
2.9306
2.96287
2.99589
3.02968
3.06427
3.09968
3.13593
3.17304
3.21103
3.24995
3.28983
3.33071
3.37263
3.4156
3.45967
3.5049
3.55132
3.599
3.64798
3.69831
3.75004
3.80325
3.85799
3.91433
3.97235
4.03211
4.09369
4.15718
4.22266
4.29023
4.36
4.43206
4.50655
4.58357
4.66326
4.74577
4.83124
4.91982
5.01168
5.10698
5.20594
5.3091
5.41872
2.65867
2.68373
2.71052
2.73844
2.76724
2.79684
2.82719
2.85826
2.89009
2.92267
2.95603
2.99017
3.02512
3.0609
3.09754
3.13509
3.17357
3.213
3.25342
3.29486
3.33738
3.38101
3.4258
3.47179
3.51903
3.56758
3.61748
3.66881
3.72162
3.77597
3.83193
3.88957
3.94898
4.01023
4.07339
4.13857
4.20587
4.2754
4.34725
4.42156
4.49846
4.57808
4.66058
4.74612
4.83487
4.927
5.02264
5.12162
5.22209
2.61752
2.64535
2.67314
2.70128
2.72999
2.75933
2.78933
2.82004
2.85146
2.88364
2.91656
2.95025
2.98473
3.02003
3.05621
3.09326
3.13122
3.17011
3.20999
3.25089
3.29285
3.33589
3.38007
3.42545
3.47206
3.51996
3.5692
3.61984
3.67194
3.72556
3.78077
3.83765
3.89627
3.9567
4.01902
4.08333
4.14974
4.21834
4.28924
4.36257
4.43846
4.51704