/*--------------------------------*- C++ -*----------------------------------*\
  =========                 |
  \\      /  F ield         | OpenFOAM: The Open Source CFD Toolbox
   \\    /   O peration     | Website:  https://openfoam.org
    \\  /    A nd           | Version:  6
     \\/     M anipulation  |
\*---------------------------------------------------------------------------*/
FoamFile
{
    version     2.0;
    format      ascii;
    class       volScalarField;
    location    "90";
    object      gradTy;
}
// * * * * * * * * * * * * * * * * * * * * * * * * * * * * * * * * * * * * * //

dimensions      [0 -1 0 1 0 0 0];

internalField   nonuniform List<scalar> 
1596
(
-0.0580752
-0.109236
-0.154086
-0.201007
-0.250814
-0.309544
-0.375744
-0.456648
-0.555952
-0.676418
-0.838996
-1.04482
-1.3243
-1.71492
-2.31132
-3.23169
-4.86438
-7.86789
-18.5873
-0.177273
-0.222499
-0.25933
-0.299114
-0.343284
-0.397766
-0.460941
-0.538898
-0.634643
-0.749
-0.898739
-1.08293
-1.32161
-1.63199
-2.06237
-2.63859
-3.48979
-4.73819
-8.2815
-0.316995
-0.337513
-0.358926
-0.387955
-0.423946
-0.471475
-0.52822
-0.59902
-0.685747
-0.78786
-0.918467
-1.07463
-1.26979
-1.51207
-1.83055
-2.23063
-2.78222
-3.53784
-5.16407
-0.462234
-0.448409
-0.450116
-0.465882
-0.491802
-0.530364
-0.578457
-0.63957
-0.71454
-0.801955
-0.911862
-1.04027
-1.19622
-1.38319
-1.61932
-1.90229
-2.27285
-2.75389
-3.58319
-0.594044
-0.548151
-0.530204
-0.53205
-0.547093
-0.57567
-0.614089
-0.664517
-0.727001
-0.799669
-0.890055
-0.993961
-1.11748
-1.2618
-1.43859
-1.64319
-1.90074
-2.22087
-2.69148
-0.695686
-0.630259
-0.597028
-0.58639
-0.590998
-0.609602
-0.638337
-0.67821
-0.728733
-0.787883
-0.861126
-0.944584
-1.04232
-1.15441
-1.28853
-1.43982
-1.62435
-1.84573
-2.13821
-0.758566
-0.690052
-0.648917
-0.629151
-0.624976
-0.634548
-0.654346
-0.684505
-0.724239
-0.771591
-0.830336
-0.897173
-0.974712
-1.06255
-1.16569
-1.2799
-1.4156
-1.5737
-1.76835
-0.783401
-0.725151
-0.68426
-0.660008
-0.649725
-0.651991
-0.664159
-0.685865
-0.716258
-0.753595
-0.80031
-0.853759
-0.915509
-0.98495
-1.06529
-1.15311
-1.25513
-1.37113
-1.50723
-0.777958
-0.739425
-0.705751
-0.681724
-0.668338
-0.665381
-0.67145
-0.686095
-0.708597
-0.737528
-0.774323
-0.816955
-0.866245
-0.921516
-0.984716
-1.05316
-1.13108
-1.21783
-1.31608
-0.748973
-0.73078
-0.708651
-0.689262
-0.676195
-0.670649
-0.672584
-0.681836
-0.698
-0.720036
-0.748744
-0.782632
-0.822051
-0.866338
-0.916607
-0.970781
-1.03145
-1.09784
-1.17101
-0.715267
-0.71134
-0.700592
-0.687932
-0.677615
-0.671722
-0.671346
-0.676777
-0.688027
-0.704487
-0.726609
-0.753363
-0.784826
-0.820387
-0.860611
-0.903874
-0.951679
-1.00322
-1.05877
-0.676292
-0.68643
-0.686485
-0.681235
-0.675032
-0.670362
-0.669103
-0.671999
-0.679497
-0.691426
-0.708106
-0.728906
-0.753779
-0.782201
-0.814387
-0.849052
-0.88697
-0.927372
-0.970156
-0.631062
-0.653137
-0.663347
-0.665858
-0.664763
-0.662683
-0.661914
-0.663591
-0.668542
-0.676992
-0.68932
-0.705234
-0.724713
-0.747358
-0.77322
-0.801263
-0.831826
-0.864164
-0.897947
-0.590928
-0.619377
-0.637392
-0.646925
-0.651089
-0.652287
-0.652884
-0.654278
-0.657578
-0.663335
-0.672099
-0.683861
-0.698728
-0.716458
-0.737078
-0.759735
-0.784532
-0.810735
-0.837887
-0.554249
-0.587338
-0.611155
-0.626578
-0.635673
-0.640366
-0.642841
-0.644592
-0.646899
-0.650557
-0.656323
-0.664436
-0.675197
-0.68856
-0.704637
-0.722737
-0.742874
-0.764318
-0.786543
-0.51927
-0.556481
-0.584978
-0.605341
-0.618893
-0.627065
-0.63171
-0.634278
-0.63611
-0.638145
-0.641352
-0.646174
-0.653153
-0.662475
-0.67444
-0.688533
-0.704806
-0.722529
-0.741121
-0.488071
-0.52765
-0.559762
-0.584237
-0.601733
-0.61322
-0.620146
-0.623825
-0.625553
-0.626322
-0.627282
-0.62903
-0.632364
-0.637728
-0.645712
-0.656018
-0.668872
-0.683565
-0.699457
-0.461116
-0.501925
-0.536733
-0.564608
-0.585571
-0.600133
-0.609334
-0.614276
-0.616136
-0.615882
-0.614778
-0.613529
-0.613166
-0.614404
-0.618196
-0.624546
-0.634012
-0.645987
-0.659796
-0.435212
-0.478977
-0.516565
-0.547554
-0.571715
-0.58919
-0.600654
-0.606959
-0.609112
-0.607996
-0.604923
-0.600645
-0.596379
-0.593081
-0.592105
-0.593852
-0.599429
-0.60852
-0.62052
-0.409722
-0.456937
-0.497634
-0.531749
-0.559018
-0.579371
-0.593162
-0.600994
-0.603669
-0.601924
-0.597064
-0.589817
-0.581514
-0.573272
-0.566817
-0.562985
-0.563702
-0.569305
-0.579557
-0.3885
-0.437726
-0.481331
-0.518555
-0.548908
-0.572137
-0.588313
-0.597802
-0.601174
-0.598981
-0.592473
-0.58229
-0.569801
-0.556159
-0.543316
-0.53242
-0.526386
-0.526777
-0.53457
-0.37048
-0.421681
-0.468058
-0.508388
-0.541869
-0.568041
-0.586714
-0.598021
-0.602286
-0.599843
-0.591843
-0.578807
-0.562083
-0.542744
-0.522721
-0.503066
-0.487402
-0.478964
-0.481807
-0.354781
-0.408602
-0.457954
-0.501488
-0.538186
-0.567404
-0.588716
-0.602033
-0.607416
-0.604944
-0.595638
-0.579884
-0.559014
-0.533992
-0.50652
-0.476925
-0.448336
-0.424387
-0.414636
-0.341803
-0.398712
-0.45118
-0.497756
-0.537317
-0.569032
-0.592353
-0.606921
-0.612555
-0.609124
-0.597267
-0.577526
-0.551252
-0.519534
-0.48383
-0.443848
-0.400368
-0.352883
-0.302839
-0.33242
-0.392527
-0.448551
-0.4989
-0.542578
-0.578677
-0.606716
-0.62612
-0.63647
-0.6375
-0.629148
-0.612051
-0.587276
-0.556332
-0.520545
-0.480077
-0.433878
-0.378811
-0.308196
-0.327381
-0.389839
-0.447733
-0.499801
-0.545155
-0.582971
-0.612846
-0.634195
-0.646475
-0.649263
-0.641919
-0.624921
-0.599214
-0.566703
-0.529401
-0.489199
-0.446341
-0.40046
-0.349094
-0.331278
-0.395653
-0.455192
-0.508775
-0.555572
-0.595022
-0.626804
-0.650536
-0.665665
-0.671544
-0.667247
-0.652568
-0.628077
-0.595645
-0.557942
-0.517765
-0.476661
-0.435119
-0.391667
-0.345482
-0.411194
-0.471695
-0.525977
-0.573317
-0.61346
-0.646266
-0.671641
-0.68915
-0.698047
-0.697154
-0.685503
-0.662938
-0.630844
-0.592218
-0.55074
-0.509395
-0.469571
-0.43036
-0.369769
-0.436667
-0.497367
-0.551416
-0.598321
-0.638185
-0.671121
-0.697383
-0.716762
-0.72858
-0.731512
-0.723879
-0.704499
-0.673679
-0.634073
-0.590058
-0.546312
-0.50568
-0.467975
-0.404493
-0.471273
-0.53102
-0.583733
-0.629147
-0.667732
-0.699914
-0.726315
-0.74704
-0.761663
-0.768908
-0.766646
-0.752565
-0.725289
-0.686016
-0.639009
-0.59062
-0.546196
-0.507135
-0.450262
-0.515185
-0.572906
-0.623229
-0.666145
-0.702516
-0.733116
-0.758919
-0.780384
-0.797505
-0.809315
-0.81374
-0.807662
-0.787789
-0.7525
-0.704085
-0.649169
-0.596612
-0.551743
-0.503211
-0.566636
-0.621506
-0.668332
-0.707684
-0.74088
-0.769045
-0.79344
-0.814859
-0.833801
-0.849863
-0.861699
-0.866302
-0.859233
-0.835426
-0.792729
-0.733609
-0.668038
-0.608974
-0.566468
-0.62682
-0.67719
-0.71903
-0.753567
-0.782534
-0.807319
-0.829347
-0.849624
-0.869086
-0.88794
-0.906095
-0.921895
-0.931872
-0.929411
-0.908125
-0.86087
-0.788494
-0.695849
-0.642855
-0.697498
-0.741425
-0.776914
-0.805792
-0.830112
-0.851362
-0.871005
-0.890106
-0.909809
-0.930877
-0.954311
-0.980561
-1.00946
-1.03776
-1.06148
-1.07026
-1.05599
-1.01079
-0.731777
-0.778009
-0.812534
-0.838991
-0.8597
-0.876848
-0.891685
-0.905495
-0.919069
-0.933085
-0.948322
-0.965345
-0.985164
-1.00905
-1.03807
-1.07424
-1.11688
-1.16396
-1.21164
-0.835674
-0.868427
-0.890617
-0.9065
-0.918368
-0.928237
-0.936981
-0.945663
-0.954812
-0.964684
-0.976088
-0.988919
-1.00386
-1.02129
-1.04221
-1.06724
-1.09862
-1.138
-1.18851
-0.953204
-0.966924
-0.974753
-0.979661
-0.983142
-0.986574
-0.990385
-0.99526
-1.00143
-1.00888
-1.01814
-1.02874
-1.04088
-1.05423
-1.06876
-1.08327
-1.09783
-1.11109
-1.12265
-1.06764
-1.06045
-1.05293
-1.04616
-1.04062
-1.03688
-1.03489
-1.03486
-1.03668
-1.04009
-1.04519
-1.0514
-1.05855
-1.06617
-1.07403
-1.08127
-1.088
-1.09363
-1.09823
-1.16739
-1.1424
-1.12119
-1.10382
-1.09004
-1.0797
-1.07237
-1.06778
-1.06557
-1.06529
-1.06675
-1.06936
-1.07285
-1.07677
-1.08089
-1.08467
-1.08818
-1.09108
-1.09344
-1.25003
-1.20959
-1.17664
-1.15026
-1.1295
-1.11361
-1.10178
-1.09339
-1.08786
-1.0846
-1.08324
-1.08323
-1.08423
-1.08583
-1.08781
-1.08979
-1.09176
-1.09349
-1.09499
-1.31079
-1.25829
-1.21624
-1.18302
-1.15709
-1.13716
-1.12209
-1.111
-1.10315
-1.09786
-1.09466
-1.09301
-1.09253
-1.09285
-1.09371
-1.09481
-1.09603
-1.09717
-1.09816
-1.34782
-1.2854
-1.2373
-1.20006
-1.17128
-1.14918
-1.13242
-1.11994
-1.11091
-1.10461
-1.1005
-1.09808
-1.09694
-1.09674
-1.09722
-1.09813
-1.09932
-1.10063
-1.10193
-1.34783
-1.28541
-1.23732
-1.20008
-1.1713
-1.1492
-1.13244
-1.11996
-1.11092
-1.10463
-1.10051
-1.09809
-1.09695
-1.09675
-1.09723
-1.09814
-1.09933
-1.10063
-1.10193
-1.31081
-1.25832
-1.21628
-1.18307
-1.15714
-1.1372
-1.12213
-1.11104
-1.10319
-1.0979
-1.09469
-1.09304
-1.09256
-1.09288
-1.09373
-1.09483
-1.09605
-1.09719
-1.09819
-1.25005
-1.20964
-1.17671
-1.15033
-1.12958
-1.11369
-1.10185
-1.09346
-1.08792
-1.08466
-1.0833
-1.08329
-1.08427
-1.08587
-1.08785
-1.08983
-1.09178
-1.09352
-1.09502
-1.16743
-1.14247
-1.12128
-1.10392
-1.09014
-1.0798
-1.07246
-1.06788
-1.06566
-1.06537
-1.06682
-1.06943
-1.0729
-1.07681
-1.08092
-1.08468
-1.08817
-1.09107
-1.09341
-1.06768
-1.06053
-1.05302
-1.04626
-1.04073
-1.03699
-1.03501
-1.03498
-1.03679
-1.04019
-1.04528
-1.05147
-1.05861
-1.06621
-1.07404
-1.08126
-1.08796
-1.09357
-1.09814
-0.953247
-0.967003
-0.974856
-0.979779
-0.98327
-0.986706
-0.990518
-0.99539
-1.00155
-1.00899
-1.01824
-1.02883
-1.04095
-1.05426
-1.06875
-1.08321
-1.09771
-1.1109
-1.12238
-0.835719
-0.868513
-0.890737
-0.906647
-0.918537
-0.928426
-0.937187
-0.945887
-0.955053
-0.964942
-0.976366
-0.989217
-1.00417
-1.02162
-1.04254
-1.06752
-1.09879
-1.13793
-1.18803
-0.731809
-0.778036
-0.81256
-0.839013
-0.859713
-0.876845
-0.891659
-0.905438
-0.918973
-0.932937
-0.948107
-0.965041
-0.984742
-1.00848
-1.03731
-1.07331
-1.11589
-1.16315
-1.21141
-0.642875
-0.697537
-0.741481
-0.776988
-0.805884
-0.830222
-0.85149
-0.871151
-0.89027
-0.909995
-0.931089
-0.954558
-0.980869
-1.00988
-1.03838
-1.06244
-1.07175
-1.05816
-1.01375
-0.566483
-0.626834
-0.677208
-0.719054
-0.753598
-0.78257
-0.807361
-0.829392
-0.849674
-0.869144
-0.888012
-0.906198
-0.922058
-0.932142
-0.929844
-0.90876
-0.861674
-0.78933
-0.696444
-0.503225
-0.566648
-0.62152
-0.668351
-0.707712
-0.740916
-0.769089
-0.793493
-0.814923
-0.833882
-0.849973
-0.861856
-0.866534
-0.859567
-0.835871
-0.793261
-0.734154
-0.668511
-0.609343
-0.450274
-0.515192
-0.572915
-0.623242
-0.666165
-0.702544
-0.733154
-0.758968
-0.780449
-0.797592
-0.809437
-0.813913
-0.8079
-0.7881
-0.752869
-0.704477
-0.649536
-0.596927
-0.552013
-0.404504
-0.471278
-0.531026
-0.583742
-0.629162
-0.667755
-0.699947
-0.726361
-0.747104
-0.761752
-0.769031
-0.766815
-0.752785
-0.725555
-0.686308
-0.6393
-0.590888
-0.546437
-0.507361
-0.369779
-0.436671
-0.497369
-0.55142
-0.598331
-0.638203
-0.67115
-0.697425
-0.716822
-0.728665
-0.731629
-0.724034
-0.70469
-0.673898
-0.634304
-0.590284
-0.546526
-0.505886
-0.468186
-0.345492
-0.411197
-0.471696
-0.52598
-0.573324
-0.613475
-0.646291
-0.671679
-0.689206
-0.698126
-0.69726
-0.685638
-0.663099
-0.631022
-0.592401
-0.550923
-0.509577
-0.469761
-0.430574
-0.331287
-0.395656
-0.455193
-0.508776
-0.555578
-0.595033
-0.626825
-0.65057
-0.665715
-0.671614
-0.667339
-0.652681
-0.628208
-0.595787
-0.55809
-0.517918
-0.476825
-0.435309
-0.391906
-0.327389
-0.389842
-0.447731
-0.499797
-0.54515
-0.582968
-0.612847
-0.6342
-0.646488
-0.649285
-0.641948
-0.624957
-0.599252
-0.566741
-0.529436
-0.48924
-0.446405
-0.400582
-0.34934
-0.332441
-0.392547
-0.448574
-0.498929
-0.542614
-0.578723
-0.606775
-0.626193
-0.636559
-0.637608
-0.629273
-0.612193
-0.587434
-0.556504
-0.520728
-0.480272
-0.434079
-0.379011
-0.308381
-0.341824
-0.398736
-0.451205
-0.49778
-0.537339
-0.56905
-0.592365
-0.606926
-0.612549
-0.609106
-0.597235
-0.577479
-0.551189
-0.519455
-0.483733
-0.443732
-0.400233
-0.352729
-0.302667
-0.354799
-0.408621
-0.457974
-0.501509
-0.538206
-0.567423
-0.588733
-0.602045
-0.607424
-0.604947
-0.595637
-0.579878
-0.559003
-0.533977
-0.506502
-0.476908
-0.448322
-0.424381
-0.414639
-0.370497
-0.421699
-0.468076
-0.508404
-0.541884
-0.568054
-0.586723
-0.598027
-0.602288
-0.59984
-0.591836
-0.578796
-0.562069
-0.542728
-0.522704
-0.503051
-0.487391
-0.478957
-0.481804
-0.388517
-0.437743
-0.481346
-0.518569
-0.548921
-0.572148
-0.58832
-0.597806
-0.601174
-0.598977
-0.592466
-0.58228
-0.569789
-0.556146
-0.543304
-0.532409
-0.526377
-0.526771
-0.534565
-0.409738
-0.456952
-0.497648
-0.531762
-0.559029
-0.57938
-0.593167
-0.600997
-0.603668
-0.60192
-0.597058
-0.589809
-0.581505
-0.573262
-0.566808
-0.562977
-0.563695
-0.569299
-0.579552
-0.435227
-0.478991
-0.516578
-0.547566
-0.571724
-0.589197
-0.600659
-0.606961
-0.609111
-0.607992
-0.604918
-0.600639
-0.596372
-0.593073
-0.592098
-0.593845
-0.599423
-0.608515
-0.620516
-0.46113
-0.501938
-0.536744
-0.564617
-0.585579
-0.600138
-0.609337
-0.614277
-0.616135
-0.615879
-0.614774
-0.613523
-0.61316
-0.614398
-0.61819
-0.624541
-0.634008
-0.645984
-0.659793
-0.488084
-0.527661
-0.559772
-0.584245
-0.60174
-0.613224
-0.620148
-0.623825
-0.625551
-0.626319
-0.627279
-0.629026
-0.632359
-0.637723
-0.645707
-0.656014
-0.668869
-0.683562
-0.699455
-0.519282
-0.556491
-0.584987
-0.605348
-0.618898
-0.627069
-0.631712
-0.634278
-0.636108
-0.638142
-0.641348
-0.646171
-0.653149
-0.662471
-0.674437
-0.68853
-0.704803
-0.722527
-0.741119
-0.554259
-0.587347
-0.611162
-0.626584
-0.635677
-0.640368
-0.642842
-0.644591
-0.646898
-0.650555
-0.65632
-0.664433
-0.675194
-0.688557
-0.704634
-0.722734
-0.742872
-0.764316
-0.786542
-0.590937
-0.619384
-0.637398
-0.64693
-0.651093
-0.652289
-0.652885
-0.654277
-0.657576
-0.663333
-0.672097
-0.683858
-0.698725
-0.716456
-0.737076
-0.759733
-0.784531
-0.810734
-0.837886
-0.631071
-0.653144
-0.663353
-0.665862
-0.664765
-0.662685
-0.661914
-0.663591
-0.668541
-0.67699
-0.689318
-0.705232
-0.724711
-0.747356
-0.773218
-0.801262
-0.831825
-0.864163
-0.897947
-0.676299
-0.686436
-0.686489
-0.681238
-0.675034
-0.670363
-0.669102
-0.671998
-0.679496
-0.691424
-0.708103
-0.728904
-0.753776
-0.782199
-0.814385
-0.84905
-0.886969
-0.927372
-0.970156
-0.715272
-0.711345
-0.700596
-0.687936
-0.677617
-0.671723
-0.671346
-0.676776
-0.688025
-0.704485
-0.726607
-0.753361
-0.784824
-0.820386
-0.860609
-0.903873
-0.951678
-1.00322
-1.05877
-0.748978
-0.730785
-0.708655
-0.689265
-0.676196
-0.67065
-0.672584
-0.681835
-0.697999
-0.720035
-0.748742
-0.78263
-0.82205
-0.866337
-0.916606
-0.97078
-1.03145
-1.09784
-1.17101
-0.777963
-0.739429
-0.705755
-0.681727
-0.66834
-0.665382
-0.67145
-0.686094
-0.708595
-0.737527
-0.774322
-0.816954
-0.866244
-0.921515
-0.984715
-1.05316
-1.13108
-1.21783
-1.31608
-0.783406
-0.725156
-0.684264
-0.660011
-0.649726
-0.651991
-0.664159
-0.685864
-0.716256
-0.753594
-0.800308
-0.853757
-0.915507
-0.984949
-1.06529
-1.15311
-1.25513
-1.37113
-1.50723
-0.758571
-0.690056
-0.64892
-0.629152
-0.624977
-0.634548
-0.654346
-0.684504
-0.724238
-0.77159
-0.830335
-0.897172
-0.974711
-1.06254
-1.16569
-1.2799
-1.4156
-1.5737
-1.76835
-0.695691
-0.630263
-0.597031
-0.586392
-0.590999
-0.609603
-0.638337
-0.67821
-0.728732
-0.787882
-0.861125
-0.944583
-1.04232
-1.15441
-1.28853
-1.43982
-1.62435
-1.84573
-2.13821
-0.594049
-0.548154
-0.530207
-0.532052
-0.547094
-0.57567
-0.614089
-0.664517
-0.727001
-0.799669
-0.890055
-0.99396
-1.11748
-1.26179
-1.43859
-1.64319
-1.90074
-2.22087
-2.69148
-0.462238
-0.448412
-0.450118
-0.465884
-0.491803
-0.530364
-0.578457
-0.63957
-0.71454
-0.801955
-0.911862
-1.04027
-1.19622
-1.38319
-1.61932
-1.90229
-2.27285
-2.75389
-3.58319
-0.316998
-0.337515
-0.358928
-0.387956
-0.423947
-0.471476
-0.528221
-0.599021
-0.685747
-0.78786
-0.918467
-1.07463
-1.26979
-1.51207
-1.83055
-2.23063
-2.78222
-3.53784
-5.16407
-0.177274
-0.2225
-0.259331
-0.299115
-0.343285
-0.397767
-0.460941
-0.538899
-0.634643
-0.749
-0.898739
-1.08293
-1.32161
-1.63199
-2.06237
-2.63859
-3.48979
-4.73819
-8.2815
-0.0580755
-0.109236
-0.154087
-0.201007
-0.250814
-0.309544
-0.375745
-0.456648
-0.555952
-0.676418
-0.838996
-1.04482
-1.3243
-1.71492
-2.31132
-3.23169
-4.86438
-7.86789
-18.5873
)
;

boundaryField
{
    up
    {
        type            calculated;
        value           nonuniform List<scalar> 
84
(
-16.8431
-9.12196
-5.60332
-3.83605
-2.85007
-2.2444
-1.8429
-1.56144
-1.35636
-1.20173
-1.08254
-0.988794
-0.912936
-0.850152
-0.796787
-0.749898
-0.707181
-0.666775
-0.626972
-0.585699
-0.540434
-0.486643
-0.412591
-0.273622
-0.266858
-0.333652
-0.378968
-0.418641
-0.456387
-0.494828
-0.536949
-0.586142
-0.660058
-1.01891
-1.26037
-1.2169
-1.12571
-1.09931
-1.09395
-1.09541
-1.09852
-1.10257
-1.10257
-1.09855
-1.09544
-1.09392
-1.09921
-1.12543
-1.21609
-1.26015
-1.02246
-0.6606
-0.586459
-0.537205
-0.495052
-0.4566
-0.418863
-0.379222
-0.334028
-0.267127
-0.27345
-0.4126
-0.486641
-0.540429
-0.585695
-0.626968
-0.666771
-0.707179
-0.749897
-0.796786
-0.850152
-0.912936
-0.988794
-1.08254
-1.20173
-1.35636
-1.56144
-1.8429
-2.2444
-2.85007
-3.83605
-5.60332
-9.12196
-16.8431
)
;
    }
    low
    {
        type            calculated;
        value           nonuniform List<scalar> 
84
(
-0.0620662
-0.184257
-0.332395
-0.488469
-0.630487
-0.738753
-0.802663
-0.823622
-0.808759
-0.767979
-0.727982
-0.683177
-0.63033
-0.586145
-0.547328
-0.509494
-0.475928
-0.448547
-0.421451
-0.392754
-0.369143
-0.349327
-0.331281
-0.315965
-0.302245
-0.29515
-0.298891
-0.315361
-0.34268
-0.381617
-0.431093
-0.486421
-0.553021
-0.633943
-0.726984
-0.837044
-0.963949
-1.0854
-1.19034
-1.27766
-1.34224
-1.3836
-1.38361
-1.34225
-1.27768
-1.19037
-1.08542
-0.963975
-0.837073
-0.726991
-0.633963
-0.553028
-0.486431
-0.431103
-0.381626
-0.342689
-0.315372
-0.298902
-0.295163
-0.302261
-0.315988
-0.331296
-0.349344
-0.369159
-0.392769
-0.421465
-0.448561
-0.475941
-0.509506
-0.547338
-0.586154
-0.630339
-0.683184
-0.727987
-0.767985
-0.808764
-0.823628
-0.802669
-0.738758
-0.630492
-0.488473
-0.332398
-0.184258
-0.0620666
)
;
    }
    left
    {
        type            calculated;
        value           nonuniform List<scalar> 
19
(
-0.0569591
-0.107163
-0.152762
-0.200993
-0.25255
-0.313384
-0.382271
-0.466875
-0.571119
-0.699023
-0.872648
-1.09427
-1.39849
-1.83022
-2.49578
-3.53994
-5.41501
-8.90648
-17.471
)
;
    }
    right
    {
        type            calculated;
        value           nonuniform List<scalar> 
19
(
-0.0569594
-0.107164
-0.152762
-0.200994
-0.252551
-0.313385
-0.382271
-0.466875
-0.571119
-0.699023
-0.872648
-1.09427
-1.39849
-1.83022
-2.49578
-3.53994
-5.41501
-8.90648
-17.471
)
;
    }
    frontAndBackPlanes
    {
        type            empty;
    }
}


// ************************************************************************* //
