/*--------------------------------*- C++ -*----------------------------------*\
  =========                 |
  \\      /  F ield         | OpenFOAM: The Open Source CFD Toolbox
   \\    /   O peration     | Website:  https://openfoam.org
    \\  /    A nd           | Version:  6
     \\/     M anipulation  |
\*---------------------------------------------------------------------------*/
FoamFile
{
    version     2.0;
    format      ascii;
    class       volScalarField;
    location    "90";
    object      gradTz;
}
// * * * * * * * * * * * * * * * * * * * * * * * * * * * * * * * * * * * * * //

dimensions      [0 -1 0 1 0 0 0];

internalField   nonuniform List<scalar> 
1596
(
-1.61385e-16
-7.90169e-17
7.9654e-17
1.168e-18
-1.53369e-16
0
-7.25669e-17
-7.15287e-17
-3.94582e-18
-3.72356e-17
-3.97935e-19
-3.68867e-17
1.61318e-16
-3.63236e-17
1.70028e-16
1.46479e-16
8.70602e-17
1.09785e-16
0
1.61903e-16
0
2.32054e-16
-1.19247e-18
-7.25951e-17
7.21463e-17
1.46419e-16
3.6894e-18
6.97501e-17
-3.34122e-17
6.65288e-17
-1.15849e-18
-9.2016e-17
-5.7249e-17
-1.37535e-16
-1.33926e-16
-1.21683e-16
6.91486e-17
0
-8.03034e-17
0
-1.53311e-16
1.89594e-18
1.4399e-16
-3.86887e-17
2.11536e-18
-1.03633e-18
-1.12345e-18
-1.24216e-18
2.65526e-17
0
4.77548e-17
1.35991e-16
-1.33521e-17
1.06115e-17
2.50247e-17
3.86591e-17
0
1.2499e-16
-3.88915e-17
3.87494e-17
0
-3.76347e-17
-3.83145e-17
6.80903e-17
-6.15046e-17
0
0
-1.95149e-17
1.38347e-17
0
-4.03831e-17
-5.2138e-17
3.56793e-17
-3.57718e-17
-1.84573e-18
0
2.16999e-17
6.01979e-17
-5.62528e-17
0
-1.71359e-17
-5.16162e-17
0
7.83921e-17
-7.93001e-18
-7.15508e-18
-4.75342e-18
4.1435e-17
4.99767e-17
4.97058e-18
5.28075e-19
-3.85895e-17
1.95524e-18
1.7792e-17
-7.54694e-18
-5.63511e-18
-8.28235e-17
8.09211e-17
-7.33986e-17
-1.10513e-19
-6.79458e-17
1.92559e-18
-1.93199e-18
-5.53945e-17
0
-3.70639e-18
-4.88129e-17
-4.52156e-17
3.76741e-17
3.69406e-17
-5.09164e-19
-2.21054e-17
-1.80462e-17
1.37131e-17
4.70936e-17
-8.5246e-17
9.92629e-17
5.67087e-17
0
5.18499e-17
3.1605e-17
-1.53455e-17
7.05352e-17
-1.34731e-17
-5.55792e-17
5.75963e-19
-3.37445e-17
-3.78703e-17
-3.03868e-17
2.52787e-17
2.22999e-17
-2.947e-19
-5.76946e-18
2.96997e-18
1.34587e-16
-1.65521e-16
0
0
-6.75377e-17
0
0
0
5.00184e-17
0
0
3.07158e-17
1.32616e-18
6.89618e-18
-2.19757e-17
0
1.17007e-17
4.41904e-18
0
-8.97828e-17
1.74359e-16
0
0
6.95544e-17
0
-2.85507e-17
2.85218e-17
-5.09115e-17
2.17077e-17
-2.18664e-17
0
3.15581e-17
2.84387e-17
0
-1.64627e-17
-1.19626e-17
-3.83806e-18
2.03999e-16
-9.73775e-17
0
-7.826e-17
7.73841e-17
0
6.37732e-17
0
0
0
2.10422e-17
-2.11431e-17
0
-2.4233e-17
-7.1224e-18
0
8.74554e-19
9.65004e-18
0
-5.17968e-17
0
0
7.88774e-17
-1.50374e-16
5.10127e-18
2.34661e-18
-2.79162e-17
2.41032e-18
1.93058e-19
-2.28566e-17
-3.82903e-17
0
2.88184e-17
-5.448e-18
5.52976e-18
1.33843e-17
-7.48891e-18
-3.55819e-18
4.6978e-17
-2.72593e-18
4.4937e-17
1.62771e-16
-5.42141e-18
-7.2365e-17
0
0
0
4.75062e-17
1.99839e-17
7.27459e-17
-1.75861e-17
-2.83029e-17
-1.79241e-17
-9.1851e-18
4.03937e-18
-8.65112e-18
3.40873e-18
-4.9554e-17
4.84368e-17
-9.16496e-17
-1.61023e-16
1.53118e-16
6.62089e-17
-1.25372e-16
1.13835e-16
-1.02851e-16
2.66642e-17
2.17604e-17
-1.95319e-17
1.4383e-17
-1.21491e-17
3.47157e-17
0
-2.53678e-18
1.83638e-17
-2.70248e-18
-3.08591e-16
1.45374e-16
1.555e-19
-3.74902e-17
2.83088e-18
6.48734e-17
-1.25278e-16
-5.5555e-17
5.00074e-17
-4.45882e-17
-3.96482e-17
0
-4.65175e-17
-1.39518e-17
-2.5675e-17
-1.52204e-17
1.20649e-18
-1.23391e-17
6.94094e-20
5.04332e-17
-4.67501e-17
1.34005e-19
-3.94759e-17
-1.05935e-16
1.01788e-16
-1.20278e-19
5.41383e-17
-4.86888e-17
8.66067e-17
2.04878e-17
1.79611e-17
5.80126e-17
0
4.92459e-17
2.24684e-17
0
7.02965e-18
5.32617e-20
0
4.5353e-17
3.92818e-17
-7.95428e-17
1.02966e-16
-1.60628e-16
1.18881e-16
5.00533e-17
-4.79333e-18
-8.60043e-17
1.73455e-17
-1.72599e-17
-5.55105e-17
2.3226e-17
-1.08272e-17
-2.35865e-17
1.06967e-17
-6.51466e-18
2.27474e-18
-4.69742e-17
1.69667e-16
-1.2543e-16
7.427e-17
0
0
-2.55871e-17
5.29353e-17
-4.28841e-17
8.23324e-17
0
0
3.8755e-17
-3.45367e-17
-2.60941e-17
8.09695e-18
-8.26786e-18
4.20238e-18
0
2.16227e-18
4.39245e-17
-3.86324e-17
-3.55671e-17
-6.2892e-17
-2.49874e-17
2.93649e-17
0
-4.10796e-17
-3.60815e-17
3.3589e-17
-2.91271e-17
2.48924e-17
0
9.77206e-18
2.08494e-17
0
0
0
-2.05072e-18
7.66258e-17
3.29934e-17
-1.05798e-16
3.16414e-17
2.88256e-17
0
0
3.94678e-17
-2.03805e-17
-3.24879e-17
2.81712e-17
-2.40728e-17
0
-7.17954e-18
6.83335e-18
0
-5.40605e-18
-1.84815e-18
-3.92009e-17
1.15093e-16
-1.44576e-16
-6.36379e-17
3.24628e-17
-2.75533e-17
2.48673e-17
0
-1.97882e-17
1.75783e-17
0
0
1.02546e-17
-1.02664e-17
3.34653e-18
-3.85627e-18
8.21277e-18
6.48536e-19
1.35353e-18
1.93701e-17
-1.81696e-17
9.92623e-17
-6.46452e-17
-2.87361e-17
2.25509e-18
4.95334e-17
2.11523e-17
1.89344e-17
0
1.33901e-17
-1.25857e-17
1.06895e-17
-9.55578e-18
1.35782e-17
-2.37386e-17
-6.37761e-18
5.61211e-18
1.55829e-18
5.31686e-17
-5.32057e-17
0
5.7419e-17
-2.94118e-17
-2.49821e-17
2.02669e-17
-6.27544e-17
0
-8.77823e-19
-1.4543e-17
-1.17161e-17
1.86545e-17
-1.13362e-18
-1.31231e-17
1.00686e-17
0
3.93067e-18
-1.51308e-18
8.74356e-17
-1.62566e-17
7.41023e-17
-5.83739e-17
3.68948e-17
7.59219e-18
-4.49513e-17
-1.80193e-17
3.37306e-17
-8.94433e-19
-2.40081e-17
2.13704e-17
-9.76473e-18
-1.42824e-17
0
0
0
-3.97092e-18
1.50577e-19
-7.987e-17
7.83796e-17
2.35202e-20
1.34519e-17
1.23761e-17
-3.2812e-17
4.063e-17
-3.61843e-17
3.28458e-17
-1.26964e-17
2.46626e-17
9.67553e-18
-4.29495e-18
2.75995e-19
-1.89448e-18
-3.36698e-18
0
0
0
0
0
4.22253e-17
-1.78127e-17
-6.77154e-17
0
0
-1.03152e-17
-1.84227e-17
1.63878e-17
0
-1.22026e-17
1.0233e-17
-3.68589e-17
4.32018e-17
-1.53279e-17
1.64368e-17
1.86712e-18
0
-1.54852e-17
1.56758e-17
0
-1.40732e-17
1.43549e-17
2.59273e-17
0
1.04137e-17
1.62351e-17
-6.96043e-17
0
-1.26988e-17
1.06756e-17
8.54259e-18
-6.75575e-18
1.02252e-17
0
-4.05339e-18
0
-7.95342e-18
-8.18896e-18
4.86398e-19
1.44599e-17
-4.0992e-17
0
-1.18707e-17
0
3.91989e-17
1.73489e-17
0
5.00918e-17
-5.55403e-17
4.79214e-18
-1.51391e-17
2.9309e-18
1.9299e-17
7.88005e-18
-6.23081e-18
0
1.67097e-17
-1.55684e-17
1.94925e-17
2.51516e-17
0
2.44175e-17
-2.361e-17
-2.07275e-17
3.41229e-17
-5.15161e-17
-2.7902e-17
0
0
7.68162e-18
0
0
2.43023e-18
0
-7.28115e-17
5.56265e-17
0
5.34623e-19
-1.49039e-17
-8.6523e-19
1.42632e-17
1.16023e-17
-1.32771e-17
-3.95306e-17
6.80251e-17
-1.79794e-17
0
-1.03211e-17
0
0
0
-9.29689e-18
7.39823e-18
-2.02864e-17
1.96073e-17
5.49919e-17
-5.45913e-17
1.74161e-17
7.28793e-19
-1.45098e-17
1.32764e-17
2.40074e-17
1.97487e-17
-3.92072e-17
0
2.4197e-17
5.17097e-18
-1.17955e-17
-2.84515e-17
2.37885e-17
-4.37561e-18
8.00895e-18
-6.7514e-17
1.03148e-16
-1.03048e-16
1.90485e-17
1.71338e-17
-1.67077e-17
1.44512e-17
-1.23332e-17
0
-1.15425e-17
2.03397e-17
8.85792e-18
1.50014e-17
2.11634e-17
-3.22967e-17
-1.49298e-20
0
-3.09203e-18
1.0156e-18
-7.30131e-17
-2.27565e-17
-4.19264e-17
2.18483e-17
-3.86032e-17
3.52333e-17
-2.14929e-17
1.94317e-17
-8.96593e-19
-9.0322e-19
-2.04329e-17
1.15971e-17
-7.97781e-18
2.36008e-17
-2.53356e-17
3.89551e-18
2.89166e-18
0
-1.71277e-18
7.89431e-17
-2.44403e-17
0
0
-3.97728e-17
7.84701e-17
-1.89179e-17
-3.93652e-18
3.35417e-17
-8.44835e-19
0
0
-9.20757e-18
0
-2.13641e-17
5.34475e-17
-3.76577e-17
0
6.44908e-19
2.74011e-17
5.25019e-17
0
-2.35997e-17
-2.05016e-17
-1.9211e-17
-1.9474e-17
8.5803e-18
-2.45198e-17
-1.41582e-17
0
0
1.10322e-17
0
0
-2.78023e-17
4.55562e-17
0
0
1.87929e-16
-2.0199e-17
-1.17993e-16
-6.79353e-17
9.18486e-17
3.06994e-17
1.88825e-17
0
-7.40194e-18
7.62386e-18
1.84527e-17
-6.07102e-18
-9.68082e-18
1.51335e-17
-1.60974e-17
-5.33363e-18
0
0
0
1.50491e-17
-1.22519e-16
1.20434e-16
-1.1919e-17
-9.58663e-17
1.52179e-16
-7.7529e-17
0
0
4.57814e-17
-3.80603e-17
0
-1.22834e-17
2.1145e-17
-2.55976e-18
6.33432e-18
1.97844e-18
1.70132e-20
4.43651e-19
0
0
0
1.05342e-16
-7.04482e-17
7.79095e-17
-1.22348e-16
3.54239e-17
0
-1.35181e-17
2.22456e-17
-2.27363e-17
-4.67207e-18
-2.29197e-19
-3.31181e-18
-5.39769e-19
-2.62215e-18
-7.21161e-19
-4.00789e-19
1.26831e-16
-2.28368e-16
1.09307e-16
0
3.13646e-17
-4.26487e-17
4.45597e-17
-3.53686e-17
0
-1.82211e-17
2.55798e-17
0
0
-1.77696e-19
0
-3.23211e-18
2.22656e-18
4.51237e-19
6.32962e-19
1.20989e-16
0
-5.07492e-17
5.67276e-17
-3.70355e-17
8.15151e-17
-3.89237e-17
-3.1597e-17
3.1927e-17
-3.30638e-18
0
0
2.19868e-18
-3.83983e-18
-2.68075e-18
5.11271e-18
-1.10621e-18
5.8025e-19
0
6.87555e-17
5.53932e-17
-1.02102e-18
-5.38754e-17
-5.60126e-18
-4.12924e-17
3.88233e-18
3.53246e-17
-1.86298e-18
3.36847e-18
0
0
-2.2524e-18
0
2.66568e-18
-2.85164e-18
0
3.65859e-19
-1.02141e-19
-3.65067e-17
-2.7735e-17
2.59526e-17
-3.05409e-18
-1.38878e-18
3.8249e-18
0
-1.03934e-18
1.59268e-17
-1.34119e-17
0
4.69808e-18
-8.92124e-19
-4.17932e-18
-3.84226e-19
-3.00671e-19
0
-2.85352e-19
0
1.50998e-17
-2.89172e-17
-5.94317e-19
1.27199e-17
1.20141e-17
-1.19568e-17
-8.73746e-18
9.9009e-18
-3.49199e-18
2.72404e-18
-2.71622e-18
2.8e-18
0
7.29757e-21
-2.81521e-19
1.01718e-18
-3.4889e-21
0
0
1.51003e-17
-1.50437e-17
-1.26536e-17
1.11954e-17
2.12392e-17
-2.13645e-17
-4.36885e-18
4.37897e-18
-3.52131e-18
3.55836e-18
-2.71628e-18
5.14657e-18
-1.4433e-18
-1.052e-18
-3.26e-19
1.07402e-19
2.58531e-19
6.85267e-20
-5.14075e-20
0
-3.61453e-18
2.20931e-17
-2.39129e-17
2.12538e-17
-1.88115e-17
0
1.57292e-17
-1.40475e-17
0
5.43889e-18
-6.90134e-18
-3.98788e-18
4.17956e-18
7.81689e-19
0
0
-2.85362e-19
1.03844e-19
6.01824e-17
-1.11696e-16
1.15884e-16
-1.03534e-16
4.10076e-17
-3.61718e-17
3.42664e-17
4.2134e-18
-1.59361e-17
1.42575e-17
0
-1.07577e-17
9.77321e-18
-1.90213e-18
-7.65664e-19
1.23451e-18
9.11268e-19
2.77032e-19
-1.00337e-19
1.36563e-16
0
-5.73388e-17
4.45066e-17
5.53671e-18
-4.38795e-17
7.86347e-17
-7.11032e-17
2.81244e-17
-1.24591e-17
1.2753e-17
2.5561e-18
4.54353e-18
1.8527e-18
-1.59042e-18
-1.90169e-19
-1.98523e-18
0
2.10186e-19
1.11464e-16
-1.25465e-16
0
1.20618e-17
5.3825e-17
-5.29521e-17
9.37353e-18
8.4972e-18
3.72361e-18
6.82433e-18
0
0
-7.91743e-18
1.51599e-17
-5.58993e-18
-2.03372e-18
2.22658e-18
1.80452e-19
-4.02848e-19
7.70265e-18
1.10221e-16
-1.31991e-17
-9.31606e-17
8.17012e-17
1.00945e-17
-9.17371e-18
-8.29924e-18
2.85261e-17
-3.53877e-17
2.22486e-17
-2.27391e-17
3.78644e-18
-4.56128e-18
8.83378e-18
-5.84692e-18
0
0
4.52548e-19
0
2.80111e-17
-8.74147e-17
9.96852e-17
-8.49553e-17
8.4753e-17
0
3.19104e-17
-3.20567e-17
-2.54262e-17
3.80814e-17
0
1.677e-17
-2.11548e-17
-3.15446e-18
0
-3.77215e-19
-8.14356e-19
2.20868e-20
-2.60418e-16
1.25906e-16
0
-9.18264e-17
9.18172e-17
5.97313e-17
-3.93453e-17
1.72494e-17
0
-8.27159e-19
6.82147e-18
-6.0612e-18
-9.66523e-18
1.51057e-17
-1.60624e-17
0
3.86918e-18
-1.00085e-18
-5.02015e-19
1.61734e-16
-1.60502e-16
0
2.37607e-17
2.2385e-17
-2.08868e-17
0
-1.80775e-17
-1.66285e-17
0
-2.1802e-19
0
1.10338e-17
0
0
5.80672e-18
2.22216e-17
-2.84867e-17
0
3.55129e-20
2.44517e-17
-2.33757e-17
2.05723e-17
-1.03804e-16
4.05837e-17
0
3.93867e-18
1.12445e-17
0
-1.24673e-17
3.94429e-17
-4.1437e-17
7.67553e-18
0
-4.69367e-19
0
0
0
3.03432e-20
0
2.1605e-17
0
-3.70724e-17
3.76618e-17
0
1.53902e-17
-1.30954e-17
4.922e-17
-2.40957e-17
9.64348e-18
-1.63729e-17
1.6661e-17
-2.5356e-17
-4.17926e-18
0
-3.39022e-18
0
6.37631e-17
-1.07602e-16
0
-1.91712e-17
1.80391e-17
0
0
-2.84952e-17
0
-1.15483e-17
-2.035e-17
-8.86325e-18
1.50113e-17
0
9.68856e-18
0
0
7.61745e-18
-8.71047e-18
0
9.58394e-17
-7.70288e-17
1.77482e-17
-1.67043e-17
-7.47615e-18
2.21116e-17
2.65036e-17
-3.52207e-17
1.14713e-17
2.4032e-20
-1.30355e-17
5.46821e-17
-1.71682e-17
-4.46329e-17
1.60831e-17
-4.74647e-18
2.78428e-18
-9.66458e-19
-1.48598e-16
5.56047e-17
0
0
7.44216e-18
-7.56784e-18
6.41693e-18
5.11289e-18
3.25926e-17
1.82829e-17
-1.88753e-17
-2.50684e-20
-1.25958e-17
1.03264e-17
0
6.23562e-18
4.35049e-18
2.63237e-18
8.73542e-19
0
4.96942e-17
-4.8116e-17
1.58023e-17
1.79396e-17
-3.5339e-18
-1.25251e-17
-1.14743e-17
-4.14957e-17
1.84298e-17
-1.34257e-17
1.67681e-17
1.17786e-17
-1.6855e-17
1.78906e-17
1.32601e-17
-1.65724e-17
-2.43138e-18
0
-8.29138e-18
-3.91052e-17
1.46738e-17
1.44631e-17
-5.36003e-17
3.95516e-17
2.24862e-17
-2.29843e-17
1.96676e-17
-1.74908e-17
0
0
-1.97458e-17
3.6587e-17
-1.68498e-17
1.7887e-17
-1.93884e-17
3.49451e-18
-6.23436e-18
1.58243e-17
1.53492e-17
-1.47117e-17
1.30424e-17
-1.42538e-17
-2.48094e-17
0
0
0
0
0
0
1.04692e-17
-3.0217e-17
3.19578e-17
-1.17196e-17
1.43999e-17
7.23321e-18
-6.18823e-18
3.23062e-17
-5.97201e-17
7.50452e-17
-3.98528e-17
5.45287e-17
-4.65249e-17
8.99712e-17
-5.36715e-17
-3.42422e-17
3.50283e-17
0
1.21937e-17
-1.02279e-17
2.85156e-17
-8.24282e-18
-1.24143e-17
-2.94001e-17
2.08645e-18
5.35028e-18
5.00045e-17
1.53781e-17
0
-2.68611e-17
-2.36794e-17
5.63277e-17
8.05034e-18
-2.70889e-17
1.69382e-17
-1.3894e-17
0
-9.65273e-18
0
-9.40214e-18
7.97557e-18
-7.63304e-18
-2.58781e-18
1.91635e-18
0
7.02167e-17
-1.62564e-17
7.40876e-17
-5.83688e-17
-1.30009e-17
5.7175e-17
-3.41517e-17
1.18148e-18
9.50793e-19
-1.39817e-17
1.36347e-17
0
0
1.10977e-17
-4.57258e-18
3.1813e-18
9.31473e-18
-3.22532e-18
0
8.10342e-21
0
-1.60393e-17
1.02038e-16
-7.04302e-17
-8.51623e-17
4.73574e-17
-5.81872e-17
5.56011e-17
3.11705e-17
-2.62007e-17
1.13746e-17
-1.05986e-17
1.5112e-18
2.03009e-17
1.21999e-18
-8.61274e-18
8.48788e-18
-1.69078e-18
1.74079e-16
-5.62415e-17
3.17405e-17
-9.59603e-17
2.87358e-17
-5.02082e-17
2.59656e-17
0
0
-9.16307e-19
-1.20741e-18
-3.49829e-19
0
-1.68829e-17
-1.3578e-17
1.04037e-17
-7.67835e-19
1.09305e-18
3.21634e-18
0
-5.76063e-17
1.04757e-16
2.8504e-17
-9.28363e-17
2.75529e-17
-4.74775e-17
4.55991e-18
4.19931e-17
0
0
8.32881e-19
1.21819e-17
0
-1.20683e-17
-5.85974e-18
8.58237e-19
-3.29028e-18
-3.4975e-18
0
-3.81955e-17
4.4424e-18
7.12378e-17
6.08934e-17
-1.15306e-16
5.4472e-17
-4.44891e-17
2.30947e-17
-3.69583e-17
0
0
0
-2.01507e-17
6.72299e-18
-7.21464e-18
0
-4.54607e-19
2.3107e-18
-1.32681e-16
1.27594e-16
1.49924e-16
-1.83092e-16
9.55882e-17
-9.18259e-17
0
4.61852e-17
-6.51333e-17
4.03355e-17
-3.39382e-17
2.95233e-17
2.53086e-17
2.08403e-17
1.70173e-17
0
0
0
0
1.42996e-16
-8.72321e-17
0
0
-3.38985e-17
9.04635e-17
-5.85357e-17
-4.81244e-17
4.75819e-17
3.99542e-17
7.07316e-17
-3.06333e-17
1.24993e-17
1.02196e-17
8.05524e-18
6.16771e-18
1.02945e-17
-5.12471e-19
5.21997e-19
-1.46759e-16
1.3862e-16
8.10345e-17
-4.11094e-17
1.03074e-16
-6.68203e-17
-5.81587e-17
-5.24935e-17
0
-8.13231e-17
2.41506e-18
3.24065e-17
-2.76072e-17
-2.32259e-17
-8.49494e-18
-9.45431e-18
-7.46205e-18
0
0
-5.04728e-17
0
4.29013e-17
-1.44325e-19
0
0
5.99926e-17
5.41659e-17
0
4.32309e-17
0
-4.91587e-17
-1.35124e-17
2.46346e-17
0
1.5845e-17
-2.26271e-18
2.30827e-18
0
1.05441e-16
0
8.46376e-17
-1.61344e-16
1.50079e-16
1.32257e-16
-2.63168e-18
0
2.49478e-18
4.70608e-17
0
-5.13245e-17
6.02427e-17
-5.35478e-17
-1.1728e-17
-1.28841e-17
-3.59778e-18
-6.09661e-19
-1.96964e-18
-1.01983e-16
1.47969e-16
-4.46016e-17
-1.22889e-16
-7.52762e-17
-6.8958e-17
-1.25379e-16
-5.44022e-17
2.50367e-18
2.18013e-17
-2.17604e-17
7.25309e-17
-3.1691e-17
6.57236e-17
-1.22999e-17
0
1.29203e-17
-7.34295e-18
2.03597e-18
2.16845e-16
-2.92675e-18
-1.82043e-16
1.62771e-16
-1.5181e-16
1.39472e-16
-2.52086e-18
-5.81101e-17
5.27776e-17
2.24192e-17
-2.42951e-18
-5.73212e-17
1.74096e-17
1.57587e-17
-5.18344e-18
5.24256e-18
-1.33822e-17
-6.60348e-19
-2.69133e-18
1.06452e-16
4.79487e-17
8.84135e-17
-8.14952e-17
-7.25512e-17
2.50543e-18
-6.11543e-17
1.49459e-16
2.8631e-18
7.35788e-17
4.37291e-17
-3.90161e-17
0
-2.88184e-17
0
0
1.62746e-17
7.41635e-18
3.16883e-18
1.01912e-16
0
8.7124e-17
8.09692e-17
-7.48967e-17
6.92591e-17
0
-5.86175e-17
-8.22777e-17
-7.43816e-17
-4.41161e-17
3.94573e-17
0
0
0
0
-1.52308e-17
-1.02968e-17
0
-1.99705e-16
0
-2.70809e-18
-2.43351e-18
1.12731e-16
-6.72118e-17
-3.14299e-17
-3.14497e-17
8.1297e-17
0
2.17076e-17
-2.42875e-18
1.81153e-17
0
0
2.32049e-17
-1.70674e-18
1.23491e-17
-4.31458e-18
1.41482e-16
4.30622e-17
-4.26177e-17
-3.9695e-17
-1.44638e-16
1.02595e-16
1.27226e-16
-1.54164e-18
-5.435e-17
5.1909e-17
1.11222e-17
-5.51389e-17
-4.64216e-17
-2.60904e-17
-2.73245e-17
-2.67098e-17
2.06346e-17
-9.85673e-19
4.41904e-18
-4.41242e-17
2.07476e-17
-1.01088e-16
1.8353e-17
-1.82862e-17
0
-6.24081e-17
-2.20129e-18
-5.71172e-17
2.619e-18
5.55791e-17
4.25516e-17
-1.00674e-17
5.93332e-18
2.60851e-17
0
-4.20274e-17
-1.48579e-17
-3.11616e-19
8.7605e-17
-2.51016e-18
1.58439e-16
-7.71087e-17
1.10513e-19
2.1417e-18
6.48727e-17
-2.94009e-18
5.53943e-17
-5.18515e-17
-4.84897e-17
0
4.52155e-17
3.71101e-17
4.91716e-19
-7.11094e-19
2.23179e-17
1.5105e-17
0
-6.26383e-17
0
-1.71374e-17
7.30586e-17
7.56112e-19
1.71588e-17
-6.27309e-17
5.97273e-17
6.08137e-17
5.80098e-17
5.53442e-17
0
-4.3926e-17
0
2.20605e-18
-2.29118e-18
0
-2.11022e-19
1.02536e-17
4.23235e-17
1.45943e-18
-3.64783e-17
1.10802e-16
-3.60107e-17
0
0
-6.59819e-17
-5.89223e-17
-5.61985e-17
-9.94589e-17
-1.38346e-17
0
0
0
-4.36095e-18
4.61498e-18
2.90462e-17
-1.04077e-17
1.46989e-18
0
-7.5622e-17
-7.11819e-17
7.32657e-17
-7.24816e-17
-1.04597e-16
1.3071e-16
3.49159e-17
0
5.76341e-17
6.31367e-17
-1.36289e-17
7.32883e-17
-1.19461e-17
1.2433e-17
4.7758e-17
-2.76006e-17
0
-8.12096e-17
0
-7.86305e-17
7.74014e-17
0
1.43321e-16
6.79717e-17
-1.40545e-16
1.10339e-16
-8.51847e-19
-3.37543e-17
-6.11293e-17
0
8.15612e-17
-1.37535e-16
1.47331e-16
-1.87686e-16
0
0
8.06771e-17
-3.41994e-19
-8.43377e-19
-1.54729e-16
1.55368e-16
-7.56213e-17
7.5313e-17
7.41847e-17
-6.72092e-17
0
0
1.22193e-16
-1.24298e-16
-1.33928e-16
1.32443e-16
-1.28784e-16
1.39103e-16
-2.17719e-16
0
)
;

boundaryField
{
    up
    {
        type            calculated;
        value           nonuniform List<scalar> 
84
(
0
0
0
0
-7.54694e-18
1.37131e-17
-5.76946e-18
4.41904e-18
-3.83806e-18
0
-3.55819e-18
3.40873e-18
-2.70248e-18
6.94094e-20
5.32617e-20
2.27474e-18
0
0
-1.84815e-18
1.35353e-18
1.55829e-18
-1.51308e-18
1.50577e-19
0
6.44376e-19
2.43292e-19
-6.03073e-18
0
7.39823e-18
8.20284e-18
1.0156e-18
-1.71277e-18
6.44908e-19
0
-3.09896e-19
4.64667e-19
-4.03057e-19
6.3376e-19
0
-1.02295e-19
0
0
-5.14669e-20
1.03844e-19
-1.00337e-19
2.10186e-19
-4.02848e-19
4.52548e-19
2.20868e-20
-5.02015e-19
0
0
0
-8.71047e-18
-1.16038e-18
8.73542e-19
0
-6.23436e-18
-6.18823e-18
4.7083e-18
0
0
-1.69078e-18
3.21634e-18
-3.4975e-18
2.3107e-18
0
5.21997e-19
0
0
-1.96964e-18
2.03597e-18
-2.69133e-18
3.16883e-18
0
-4.31458e-18
4.41904e-18
-3.11616e-19
0
1.02536e-17
-1.04077e-17
0
0
0
)
;
    }
    low
    {
        type            calculated;
        value           nonuniform List<scalar> 
84
(
-1.61454e-16
1.61903e-16
-8.01818e-17
1.2509e-16
2.17673e-17
-5.65491e-18
4.72574e-17
3.12266e-18
0
2.04152e-16
-5.17968e-17
4.69191e-17
-4.9554e-17
-3.08548e-16
5.04332e-17
0
-4.69742e-17
2.16227e-18
-2.05072e-18
-3.92009e-17
1.93701e-17
5.31686e-17
8.72447e-17
-7.987e-17
0
-1.54852e-17
-7.95342e-18
0
-7.28115e-17
-2.02864e-17
-6.73518e-17
-7.28687e-17
7.88263e-17
2.74011e-17
1.87888e-16
1.50491e-17
0
1.26831e-16
1.21165e-16
6.88595e-17
-3.6565e-17
1.50998e-17
1.51003e-17
0
6.01824e-17
1.36739e-16
1.11464e-16
7.79019e-18
0
-2.60377e-16
1.61734e-16
3.55129e-20
3.03432e-20
6.37631e-17
0
-1.48384e-16
0
-8.29138e-18
1.58243e-17
3.2192e-17
4.98021e-17
7.00257e-17
8.10342e-21
1.73911e-16
0
0
-1.32681e-16
1.42885e-16
-1.4667e-16
-5.04728e-17
1.05399e-16
-1.01983e-16
2.16963e-16
1.06557e-16
1.01912e-16
-1.99705e-16
1.41329e-16
-4.39605e-17
8.7605e-17
-6.25708e-17
4.23235e-17
1.59145e-18
-8.12096e-17
8.07121e-17
)
;
    }
    left
    {
        type            calculated;
        value           nonuniform List<scalar> 
19
(
-1.61385e-16
-7.90573e-17
7.9654e-17
1.16775e-18
-1.53399e-16
0
-7.25669e-17
-7.15287e-17
-4.16313e-18
-3.72356e-17
-3.97935e-19
-3.68867e-17
1.62989e-16
-3.63236e-17
1.70028e-16
1.46479e-16
8.70602e-17
1.27534e-16
0
)
;
    }
    right
    {
        type            calculated;
        value           nonuniform List<scalar> 
19
(
8.06771e-17
-3.01628e-19
-8.43377e-19
-1.54728e-16
1.55398e-16
-7.56213e-17
7.5313e-17
7.41847e-17
-6.69919e-17
0
0
1.23377e-16
-1.25969e-16
-1.33928e-16
1.32443e-16
-1.28784e-16
1.39103e-16
-2.35467e-16
0
)
;
    }
    frontAndBackPlanes
    {
        type            empty;
    }
}


// ************************************************************************* //
