/*--------------------------------*- C++ -*----------------------------------*\
  =========                 |
  \\      /  F ield         | OpenFOAM: The Open Source CFD Toolbox
   \\    /   O peration     | Website:  https://openfoam.org
    \\  /    A nd           | Version:  6
     \\/     M anipulation  |
\*---------------------------------------------------------------------------*/
FoamFile
{
    version     2.0;
    format      ascii;
    class       volScalarField;
    location    "30";
    object      gradTy;
}
// * * * * * * * * * * * * * * * * * * * * * * * * * * * * * * * * * * * * * //

dimensions      [0 -1 0 1 0 0 0];

internalField   nonuniform List<scalar> 
13524
(
0.997269
1.00889
1.02017
1.0314
1.04268
1.05411
1.06573
1.07757
1.08966
1.10201
1.11463
1.12753
1.14073
1.15424
1.16807
1.18224
1.19676
1.21163
1.22688
1.24252
1.25855
1.275
1.29189
1.30924
1.32705
1.34536
1.36418
1.38353
1.40344
1.42394
1.44505
1.46679
1.48919
1.51229
1.53611
1.56069
1.58607
1.61229
1.63939
1.66741
1.69641
1.72644
1.75756
1.78984
1.82333
1.85815
1.89439
1.93224
1.97207
1.0001
1.00995
1.02042
1.03125
1.04235
1.05369
1.06527
1.07709
1.08916
1.1015
1.11411
1.12701
1.14021
1.15371
1.16753
1.1817
1.19621
1.21108
1.22632
1.24194
1.25797
1.27441
1.2913
1.30863
1.32644
1.34474
1.36355
1.38289
1.4028
1.42329
1.44438
1.46612
1.48851
1.51159
1.5354
1.55998
1.58535
1.61155
1.63863
1.66664
1.69562
1.72563
1.75671
1.78893
1.82234
1.85697
1.89282
1.92965
1.96642
0.957934
0.968512
0.978952
0.989453
1.00011
1.01098
1.02206
1.03337
1.04494
1.05676
1.06886
1.08122
1.09387
1.10682
1.12009
1.13368
1.1476
1.16185
1.17647
1.19146
1.20684
1.22262
1.23882
1.25545
1.27253
1.29009
1.30813
1.32669
1.34579
1.36545
1.38568
1.40653
1.42801
1.45016
1.47301
1.49658
1.52091
1.54605
1.57203
1.5989
1.62669
1.65547
1.68528
1.71616
1.74817
1.78135
1.81573
1.85144
1.88916
0.944712
0.953763
0.963401
0.973426
0.983753
0.994338
1.00517
1.01627
1.02761
1.03922
1.0511
1.06324
1.07568
1.08842
1.10146
1.11482
1.1285
1.14252
1.15689
1.17164
1.18676
1.20227
1.2182
1.23455
1.25135
1.26861
1.28636
1.30461
1.32339
1.34272
1.36262
1.38312
1.40424
1.42602
1.44848
1.47166
1.49559
1.52031
1.54586
1.57228
1.59961
1.62791
1.65721
1.68758
1.71906
1.75166
1.78541
1.82015
1.85515
0.916364
0.926289
0.936096
0.945995
0.956066
0.966347
0.976864
0.987624
0.998633
1.0099
1.02142
1.03322
1.04531
1.05768
1.07035
1.08332
1.09661
1.11024
1.12421
1.13854
1.15323
1.1683
1.18378
1.19967
1.216
1.23277
1.25002
1.26775
1.286
1.30478
1.32412
1.34404
1.36457
1.38573
1.40756
1.43008
1.45334
1.47736
1.50219
1.52786
1.55443
1.58193
1.61042
1.63995
1.67057
1.70233
1.73532
1.7697
1.80624
0.886222
0.894577
0.9035
0.912808
0.92241
0.932276
0.942393
0.952753
0.96336
0.97422
0.985337
0.996719
1.00837
1.0203
1.03252
1.04503
1.05786
1.071
1.08448
1.0983
1.11247
1.12701
1.14194
1.15727
1.17302
1.1892
1.20584
1.22294
1.24055
1.25866
1.27732
1.29653
1.31634
1.33675
1.35781
1.37954
1.40197
1.42514
1.4491
1.47387
1.4995
1.52604
1.55353
1.58205
1.61163
1.64234
1.67422
1.70721
1.7407
0.872509
0.881782
0.891045
0.90043
0.909997
0.919778
0.929781
0.940017
0.950491
0.961213
0.972188
0.983421
0.994916
1.00668
1.01874
1.03109
1.04374
1.05671
1.07
1.08363
1.09762
1.11197
1.1267
1.14182
1.15736
1.17333
1.18974
1.20662
1.22399
1.24186
1.26027
1.27923
1.29877
1.31891
1.33968
1.36112
1.38325
1.40612
1.42976
1.4542
1.47949
1.50569
1.53283
1.56099
1.59023
1.62063
1.65231
1.68554
1.72116
0.824865
0.833051
0.841583
0.85038
0.859415
0.86867
0.878138
0.887825
0.897735
0.907877
0.918253
0.928866
0.939726
0.950846
0.962237
0.973905
0.985857
0.998104
1.01066
1.02354
1.03675
1.0503
1.06421
1.0785
1.09317
1.10825
1.12376
1.1397
1.1561
1.17299
1.19037
1.20828
1.22674
1.24576
1.26538
1.28563
1.30654
1.32814
1.35047
1.37355
1.39745
1.42219
1.44784
1.47445
1.50208
1.53082
1.56074
1.59191
1.62402
0.82337
0.831867
0.840608
0.849557
0.858694
0.868016
0.877531
0.887251
0.897185
0.907339
0.917718
0.928332
0.939195
0.950317
0.961705
0.973365
0.985309
0.99755
1.0101
1.02297
1.03618
1.04972
1.06362
1.0779
1.09257
1.10765
1.12314
1.13908
1.15547
1.17234
1.18972
1.20762
1.22606
1.24508
1.26469
1.28493
1.30582
1.32741
1.34972
1.3728
1.39668
1.42141
1.44704
1.47362
1.50122
1.52992
1.55984
1.59122
1.62465
0.765768
0.774642
0.783269
0.791859
0.800508
0.809276
0.818196
0.827289
0.836569
0.846048
0.855735
0.86564
0.875776
0.886149
0.896768
0.907642
0.918782
0.9302
0.941906
0.953908
0.966218
0.978848
0.991814
1.00513
1.01881
1.03286
1.04731
1.06217
1.07746
1.09319
1.1094
1.12609
1.14329
1.16102
1.1793
1.19818
1.21766
1.23779
1.2586
1.28011
1.30238
1.32543
1.34931
1.37407
1.39976
1.42642
1.45413
1.48296
1.51313
0.763448
0.77107
0.779106
0.787397
0.795885
0.804553
0.813397
0.822426
0.831646
0.841066
0.850697
0.860546
0.87062
0.880931
0.891486
0.902296
0.913371
0.924721
0.936357
0.948287
0.960525
0.973081
0.985971
0.999208
1.01281
1.02678
1.04114
1.05591
1.07111
1.08675
1.10286
1.11945
1.13655
1.15418
1.17236
1.19112
1.21049
1.2305
1.25118
1.27257
1.2947
1.31761
1.34133
1.36592
1.3914
1.41781
1.44511
1.47316
1.50124
0.718178
0.726053
0.733866
0.741743
0.749743
0.757891
0.766204
0.774691
0.783362
0.792226
0.80129
0.81056
0.820045
0.829753
0.839693
0.849875
0.860305
0.870994
0.881952
0.89319
0.904717
0.916544
0.928685
0.941153
0.95396
0.967122
0.980653
0.994566
1.00888
1.02361
1.03878
1.05441
1.07052
1.08712
1.10425
1.12192
1.14016
1.15901
1.17849
1.19864
1.21948
1.24105
1.26339
1.28654
1.31052
1.33538
1.36112
1.38786
1.41605
0.699693
0.706514
0.713714
0.721176
0.728845
0.7367
0.744736
0.752955
0.761363
0.769964
0.778762
0.787763
0.796974
0.806404
0.816062
0.825954
0.836089
0.846476
0.857125
0.868047
0.879249
0.890742
0.90254
0.914656
0.927103
0.939895
0.953044
0.966565
0.980476
0.994795
1.00954
1.02473
1.04038
1.05652
1.07316
1.09034
1.10807
1.12639
1.14532
1.1649
1.18516
1.20613
1.22784
1.25034
1.27366
1.29782
1.32284
1.34863
1.37477
0.668465
0.675638
0.682775
0.689995
0.697344
0.704847
0.712516
0.720361
0.728388
0.736603
0.745008
0.753609
0.762414
0.77143
0.780666
0.790126
0.799818
0.809753
0.81994
0.830387
0.841102
0.852097
0.863383
0.874974
0.886882
0.899119
0.911697
0.924632
0.937939
0.951637
0.965742
0.980272
0.995246
1.01068
1.0266
1.04303
1.06
1.07753
1.09564
1.11437
1.13376
1.15382
1.17461
1.19616
1.2185
1.24168
1.26575
1.29084
1.31744
0.63431
0.640436
0.646894
0.653584
0.660467
0.667527
0.67476
0.682169
0.689756
0.697523
0.705472
0.71361
0.721943
0.730478
0.73922
0.748176
0.757353
0.766761
0.776406
0.786298
0.796444
0.806855
0.817542
0.828517
0.839792
0.851378
0.863289
0.875537
0.888138
0.901108
0.914464
0.928223
0.942402
0.95702
0.972097
0.987657
1.00372
1.02032
1.03748
1.05522
1.07358
1.09259
1.1123
1.13272
1.15392
1.17593
1.19878
1.22246
1.24662
0.616649
0.623141
0.629633
0.636219
0.642941
0.649817
0.656856
0.664064
0.671444
0.679
0.686736
0.694656
0.702767
0.711074
0.719583
0.7283
0.737233
0.746389
0.755778
0.765406
0.775282
0.785416
0.795819
0.806503
0.817479
0.828758
0.840352
0.852275
0.864542
0.877168
0.890171
0.903565
0.917368
0.931598
0.946276
0.961424
0.977065
0.993224
1.00993
1.0272
1.04508
1.0636
1.0828
1.10271
1.12339
1.14489
1.1673
1.19074
1.21566
0.567666
0.573076
0.578795
0.584742
0.590876
0.597179
0.603643
0.610265
0.617048
0.623993
0.631105
0.638386
0.64584
0.653475
0.661295
0.669307
0.677516
0.685932
0.694561
0.70341
0.712486
0.721799
0.73136
0.741178
0.751265
0.761631
0.772287
0.783244
0.794518
0.806122
0.818071
0.830382
0.843068
0.856146
0.869637
0.883559
0.897934
0.912787
0.92814
0.94402
0.960457
0.977483
0.995136
1.01346
1.03249
1.0523
1.07294
1.09446
1.11667
0.562478
0.568229
0.574115
0.580141
0.586305
0.592611
0.599061
0.605658
0.612409
0.619317
0.626387
0.633622
0.641027
0.648609
0.656375
0.66433
0.672481
0.680835
0.689401
0.698185
0.707194
0.716438
0.725928
0.735673
0.745685
0.755974
0.766551
0.777427
0.788617
0.800135
0.811997
0.824216
0.836808
0.84979
0.86318
0.876999
0.891269
0.906011
0.921251
0.937013
0.953328
0.970229
0.987751
1.00594
1.02483
1.0445
1.06505
1.08668
1.10996
0.500214
0.505694
0.511146
0.51664
0.522213
0.527885
0.533669
0.539575
0.54561
0.55178
0.558089
0.564542
0.571146
0.577906
0.584829
0.59192
0.599184
0.606629
0.614262
0.622089
0.630117
0.638355
0.64681
0.655494
0.664415
0.673583
0.683007
0.692697
0.702668
0.71293
0.723499
0.734387
0.745606
0.757173
0.769104
0.781417
0.794131
0.807266
0.820844
0.834887
0.849422
0.864476
0.880081
0.89627
0.913081
0.930555
0.948738
0.967658
0.987223
0.500312
0.505458
0.510792
0.516257
0.521836
0.527524
0.533326
0.539248
0.545297
0.551476
0.557793
0.564251
0.570859
0.577622
0.584546
0.591637
0.5989
0.606344
0.613976
0.621801
0.629827
0.638061
0.646513
0.655193
0.664111
0.673275
0.682694
0.692381
0.702347
0.712605
0.723168
0.734051
0.745264
0.756825
0.76875
0.781056
0.793763
0.80689
0.820459
0.834491
0.849012
0.86405
0.879632
0.895787
0.912547
0.92994
0.947988
0.966691
0.985973
0.440268
0.445181
0.450052
0.45495
0.459909
0.464949
0.470081
0.475314
0.480655
0.486111
0.491685
0.497384
0.503214
0.50918
0.515286
0.521539
0.527944
0.534508
0.541236
0.548135
0.555211
0.56247
0.569922
0.577575
0.585436
0.593515
0.601819
0.610358
0.619143
0.628186
0.637498
0.64709
0.656975
0.667166
0.677677
0.688524
0.699724
0.711294
0.723252
0.735617
0.748412
0.761657
0.775377
0.789595
0.804331
0.819605
0.835431
0.851828
0.868885
0.433332
0.437779
0.442389
0.447118
0.45195
0.456882
0.461916
0.467053
0.4723
0.47766
0.483139
0.488741
0.49447
0.500333
0.506335
0.51248
0.518775
0.525226
0.531839
0.538619
0.545572
0.552706
0.560029
0.567549
0.575274
0.583213
0.591373
0.599764
0.608397
0.617283
0.626433
0.635859
0.645572
0.655585
0.665913
0.676571
0.687575
0.698942
0.710689
0.722836
0.735402
0.74841
0.761881
0.775836
0.790293
0.805268
0.82076
0.836722
0.852933
0.38255
0.386642
0.390767
0.394955
0.39922
0.40357
0.408009
0.412542
0.417173
0.421906
0.426744
0.431692
0.436753
0.441931
0.447233
0.452662
0.458222
0.463921
0.469762
0.475751
0.481894
0.488196
0.494664
0.501307
0.508131
0.515143
0.522351
0.529763
0.537389
0.545237
0.55332
0.561645
0.570224
0.579068
0.588189
0.597602
0.60732
0.617359
0.627733
0.638459
0.649555
0.66104
0.672932
0.68525
0.698011
0.711236
0.724942
0.739177
0.754125
0.365608
0.369316
0.373155
0.377101
0.381142
0.385274
0.389498
0.393814
0.398227
0.40274
0.407354
0.412073
0.416901
0.421843
0.426903
0.432084
0.437391
0.44283
0.448406
0.454123
0.459986
0.466002
0.472176
0.478517
0.485031
0.491724
0.498604
0.505679
0.512958
0.520449
0.528164
0.536111
0.5443
0.552741
0.561448
0.570433
0.579709
0.58929
0.599192
0.60943
0.620021
0.630983
0.642334
0.654094
0.666281
0.678914
0.692009
0.705566
0.71948
0.322945
0.326332
0.329763
0.333259
0.336827
0.340471
0.344196
0.348003
0.351897
0.35588
0.359953
0.364119
0.368383
0.372748
0.377217
0.381794
0.386483
0.391289
0.396215
0.401266
0.406446
0.411761
0.417217
0.42282
0.428575
0.43449
0.440569
0.44682
0.453252
0.459871
0.466688
0.47371
0.480946
0.488405
0.496098
0.504037
0.512233
0.5207
0.529449
0.538495
0.547854
0.557541
0.567574
0.57797
0.588749
0.599932
0.611548
0.623648
0.636385
0.297902
0.300927
0.304045
0.307243
0.310515
0.313863
0.317287
0.32079
0.324374
0.32804
0.33179
0.335627
0.339554
0.343576
0.347693
0.35191
0.356231
0.360659
0.365199
0.369854
0.374629
0.379528
0.384556
0.38972
0.395025
0.400476
0.40608
0.411842
0.41777
0.423871
0.430154
0.436627
0.443296
0.450172
0.457263
0.464581
0.472135
0.479939
0.488005
0.496344
0.504972
0.513905
0.523158
0.532749
0.542697
0.553022
0.563746
0.574878
0.586362
0.26152
0.264223
0.266977
0.269786
0.272657
0.275592
0.278594
0.281666
0.284808
0.288022
0.291311
0.294677
0.298123
0.301651
0.305265
0.308966
0.312758
0.316645
0.32063
0.324717
0.328908
0.333209
0.337624
0.342157
0.346815
0.351601
0.35652
0.361579
0.366784
0.372141
0.377658
0.38334
0.389196
0.395232
0.401458
0.407883
0.414517
0.421369
0.428452
0.435775
0.443354
0.4512
0.459331
0.467761
0.476508
0.485593
0.495043
0.504897
0.515266
0.230496
0.232851
0.23526
0.237726
0.24025
0.242831
0.245473
0.248174
0.250938
0.253766
0.256661
0.259624
0.262658
0.265764
0.268945
0.272205
0.275544
0.278968
0.282478
0.286078
0.28977
0.293559
0.297448
0.301442
0.305545
0.309761
0.314096
0.318553
0.323138
0.327858
0.332718
0.337725
0.342884
0.348203
0.353689
0.35935
0.365195
0.371234
0.377475
0.38393
0.39061
0.397528
0.404697
0.412133
0.419851
0.427869
0.436206
0.444874
0.453843
0.19839
0.200413
0.202484
0.204605
0.206773
0.208992
0.211262
0.213583
0.215958
0.218389
0.220878
0.223426
0.226034
0.228706
0.231442
0.234245
0.237118
0.240063
0.243082
0.246179
0.249356
0.252616
0.255962
0.259398
0.262929
0.266557
0.270287
0.274123
0.278069
0.282131
0.286314
0.290623
0.295063
0.29964
0.304362
0.309234
0.314265
0.319463
0.324836
0.330393
0.336145
0.342102
0.348278
0.354684
0.361336
0.368251
0.375448
0.382956
0.390845
0.163629
0.165313
0.167028
0.168778
0.170566
0.172394
0.174262
0.176174
0.178131
0.180135
0.182186
0.184285
0.186435
0.188636
0.190892
0.193203
0.195571
0.197999
0.200488
0.203042
0.205661
0.208349
0.211108
0.213942
0.216854
0.219847
0.222923
0.226086
0.229341
0.232691
0.236141
0.239695
0.243357
0.247133
0.251028
0.255047
0.259198
0.263486
0.267919
0.272504
0.277251
0.282168
0.287266
0.292557
0.298052
0.303765
0.30971
0.315897
0.32231
0.133686
0.135027
0.136412
0.137832
0.139286
0.140774
0.142297
0.143856
0.145453
0.147088
0.148761
0.150474
0.152228
0.154025
0.155866
0.157752
0.159685
0.161666
0.163699
0.165783
0.167921
0.170115
0.172367
0.174681
0.177058
0.179501
0.182012
0.184595
0.187252
0.189987
0.192804
0.195705
0.198696
0.201778
0.204958
0.20824
0.21163
0.215132
0.218752
0.222498
0.226375
0.230393
0.23456
0.238884
0.243377
0.248051
0.252921
0.258003
0.263342
0.0975134
0.0985262
0.0995467
0.100584
0.101643
0.102726
0.103836
0.104973
0.106136
0.107327
0.108547
0.109796
0.111075
0.112386
0.113728
0.115104
0.116514
0.11796
0.119442
0.120963
0.122522
0.124123
0.125766
0.127454
0.129187
0.130969
0.132801
0.134685
0.136623
0.138619
0.140674
0.142791
0.144972
0.147221
0.149542
0.151937
0.15441
0.156966
0.159608
0.162342
0.165173
0.168107
0.17115
0.174309
0.177593
0.181012
0.184573
0.188288
0.192148
0.0675652
0.0682051
0.0688808
0.0695842
0.0703098
0.0710561
0.0718225
0.0726072
0.0734104
0.0742334
0.0750766
0.0759405
0.0768253
0.0777316
0.0786602
0.0796119
0.0805873
0.0815872
0.0826125
0.0836641
0.0847428
0.0858499
0.0869863
0.0881534
0.0893525
0.0905848
0.0918515
0.0931542
0.0944946
0.0958744
0.0972955
0.0987594
0.100268
0.101824
0.103429
0.105085
0.106796
0.108564
0.110392
0.112284
0.114243
0.116273
0.118379
0.120566
0.12284
0.125208
0.127682
0.130278
0.133038
0.0323309
0.0326665
0.0330016
0.0333435
0.0336934
0.0340521
0.0344187
0.0347934
0.0351775
0.0355716
0.0359756
0.0363892
0.0368128
0.0372468
0.0376918
0.0381479
0.0386153
0.0390945
0.0395859
0.0400899
0.040607
0.0411376
0.0416822
0.0422415
0.042816
0.0434064
0.0440133
0.0446374
0.0452795
0.0459406
0.0466213
0.0473227
0.0480456
0.048791
0.0495601
0.050354
0.051174
0.0520214
0.0528977
0.0538045
0.0547436
0.055717
0.056727
0.057776
0.0588672
0.0600041
0.0611916
0.0624348
0.0637327
-7.24079e-07
-1.45046e-06
-6.68934e-07
1.66476e-07
1.26151e-06
1.70169e-06
9.30715e-07
3.57437e-07
4.87113e-07
8.32533e-07
8.92335e-07
6.40955e-07
3.93883e-07
3.79406e-07
5.46181e-07
7.14098e-07
8.15893e-07
9.2137e-07
1.10147e-06
1.35719e-06
1.62145e-06
1.81523e-06
1.89963e-06
1.8941e-06
1.82882e-06
1.71819e-06
1.5663e-06
1.37074e-06
1.13844e-06
9.01402e-07
6.90221e-07
5.46691e-07
4.80348e-07
4.59805e-07
4.96863e-07
5.66369e-07
6.62856e-07
8.02738e-07
9.54675e-07
1.09415e-06
1.22525e-06
1.38415e-06
1.48202e-06
1.46609e-06
1.47775e-06
1.34149e-06
1.59187e-06
1.14359e-06
8.62835e-07
-0.0323312
-0.0326672
-0.0330021
-0.033343
-0.0336918
-0.0340501
-0.034417
-0.034792
-0.035176
-0.0355698
-0.0359736
-0.0363873
-0.036811
-0.037245
-0.0376897
-0.0381455
-0.0386128
-0.0390918
-0.039583
-0.0400868
-0.0406037
-0.0411342
-0.0416789
-0.0422383
-0.0428131
-0.0434037
-0.044011
-0.0446355
-0.045278
-0.0459395
-0.0466207
-0.0473225
-0.0480457
-0.0487913
-0.0495604
-0.0503543
-0.0511741
-0.0520214
-0.0528975
-0.0538041
-0.0547428
-0.0557159
-0.0567258
-0.0577748
-0.058866
-0.0600031
-0.0611908
-0.0624343
-0.0637325
-0.0675625
-0.0682009
-0.0688776
-0.0695818
-0.0703086
-0.0710552
-0.07182
-0.0726035
-0.0734067
-0.0742298
-0.075073
-0.0759363
-0.0768206
-0.0777266
-0.0786551
-0.0796066
-0.0805818
-0.0815817
-0.082607
-0.0836587
-0.0847376
-0.0858449
-0.0869816
-0.088149
-0.0893484
-0.090581
-0.0918482
-0.0931514
-0.0944923
-0.0958725
-0.097294
-0.0987583
-0.100267
-0.101823
-0.103428
-0.105085
-0.106796
-0.108563
-0.110392
-0.112283
-0.114242
-0.116272
-0.118378
-0.120564
-0.122838
-0.125207
-0.127681
-0.130277
-0.133037
-0.0975126
-0.0985239
-0.0995446
-0.100583
-0.101644
-0.102727
-0.103836
-0.104971
-0.106135
-0.107326
-0.108545
-0.109794
-0.111073
-0.112383
-0.113726
-0.115101
-0.116511
-0.117957
-0.119439
-0.12096
-0.12252
-0.124121
-0.125764
-0.127452
-0.129186
-0.130968
-0.132801
-0.134685
-0.136623
-0.138619
-0.140673
-0.14279
-0.144972
-0.147221
-0.149542
-0.151937
-0.15441
-0.156966
-0.159609
-0.162343
-0.165174
-0.168108
-0.171151
-0.17431
-0.177594
-0.181012
-0.184574
-0.188289
-0.192149
-0.133687
-0.135029
-0.136413
-0.137833
-0.139286
-0.140774
-0.142298
-0.143858
-0.145454
-0.147089
-0.148762
-0.150475
-0.152229
-0.154026
-0.155867
-0.157753
-0.159686
-0.161668
-0.1637
-0.165785
-0.167923
-0.170117
-0.17237
-0.174683
-0.17706
-0.179503
-0.182014
-0.184596
-0.187253
-0.189987
-0.192803
-0.195705
-0.198695
-0.201777
-0.204957
-0.208239
-0.211628
-0.21513
-0.218751
-0.222497
-0.226375
-0.230392
-0.234559
-0.238883
-0.243377
-0.248051
-0.252919
-0.258002
-0.263341
-0.163631
-0.165317
-0.167031
-0.16878
-0.170567
-0.172395
-0.174265
-0.176178
-0.178135
-0.180139
-0.18219
-0.18429
-0.18644
-0.188642
-0.190898
-0.193209
-0.195577
-0.198006
-0.200495
-0.203049
-0.205668
-0.208356
-0.211115
-0.213949
-0.21686
-0.219852
-0.222927
-0.22609
-0.229344
-0.232693
-0.236143
-0.239696
-0.243358
-0.247133
-0.251028
-0.255047
-0.259197
-0.263485
-0.267918
-0.272504
-0.277251
-0.282168
-0.287267
-0.292557
-0.298052
-0.303766
-0.30971
-0.315898
-0.32231
-0.198389
-0.200412
-0.202484
-0.204604
-0.206773
-0.208992
-0.211262
-0.213584
-0.21596
-0.218392
-0.220881
-0.223429
-0.226038
-0.22871
-0.231446
-0.23425
-0.237123
-0.240068
-0.243088
-0.246185
-0.249361
-0.252621
-0.255966
-0.259403
-0.262933
-0.266561
-0.27029
-0.274125
-0.27807
-0.282131
-0.286314
-0.290622
-0.295062
-0.299639
-0.30436
-0.309233
-0.314264
-0.319462
-0.324835
-0.330392
-0.336143
-0.342101
-0.348277
-0.354683
-0.361335
-0.36825
-0.375447
-0.382955
-0.390844
-0.230494
-0.232847
-0.235258
-0.237726
-0.24025
-0.242832
-0.245473
-0.248174
-0.250938
-0.253767
-0.256662
-0.259625
-0.262659
-0.265765
-0.268947
-0.272206
-0.275546
-0.27897
-0.28248
-0.286079
-0.289771
-0.293559
-0.297448
-0.301442
-0.305545
-0.309761
-0.314095
-0.318552
-0.323137
-0.327856
-0.332716
-0.337723
-0.342882
-0.348201
-0.353686
-0.359348
-0.365193
-0.371232
-0.377473
-0.383928
-0.390608
-0.397526
-0.404696
-0.412132
-0.41985
-0.427869
-0.436206
-0.444874
-0.453843
-0.26152
-0.264222
-0.266975
-0.269786
-0.272658
-0.275593
-0.278594
-0.281665
-0.284806
-0.28802
-0.291309
-0.294675
-0.29812
-0.301649
-0.305262
-0.308963
-0.312755
-0.316641
-0.320626
-0.324712
-0.328904
-0.333204
-0.337619
-0.342152
-0.346809
-0.351595
-0.356515
-0.361574
-0.366778
-0.372135
-0.377652
-0.383334
-0.38919
-0.395227
-0.401453
-0.407878
-0.414512
-0.421365
-0.428447
-0.435771
-0.443349
-0.451196
-0.459327
-0.467757
-0.476504
-0.485591
-0.49504
-0.504895
-0.515265
-0.297903
-0.300928
-0.304045
-0.307242
-0.310515
-0.313862
-0.317286
-0.320789
-0.324372
-0.328037
-0.331787
-0.335624
-0.339551
-0.343572
-0.347689
-0.351906
-0.356226
-0.360654
-0.365194
-0.369849
-0.374623
-0.379522
-0.384551
-0.389714
-0.395019
-0.40047
-0.406074
-0.411836
-0.417764
-0.423866
-0.430149
-0.436622
-0.443291
-0.450166
-0.457258
-0.464575
-0.47213
-0.479935
-0.488
-0.49634
-0.504968
-0.513901
-0.523154
-0.532746
-0.542694
-0.55302
-0.563744
-0.574877
-0.586362
-0.322944
-0.326332
-0.329763
-0.333257
-0.336824
-0.340468
-0.344193
-0.348
-0.351894
-0.355875
-0.359948
-0.364115
-0.368379
-0.372744
-0.377212
-0.381789
-0.386478
-0.391283
-0.396209
-0.40126
-0.40644
-0.411755
-0.417211
-0.422813
-0.428569
-0.434484
-0.440563
-0.446815
-0.453246
-0.459866
-0.466683
-0.473705
-0.480941
-0.4884
-0.496093
-0.504032
-0.512228
-0.520694
-0.529444
-0.53849
-0.547849
-0.557536
-0.567569
-0.577966
-0.588745
-0.599929
-0.611545
-0.623645
-0.636383
-0.365607
-0.369316
-0.373156
-0.377101
-0.381141
-0.385273
-0.389497
-0.393813
-0.398226
-0.402738
-0.407352
-0.412071
-0.416899
-0.421841
-0.4269
-0.432081
-0.437388
-0.442827
-0.448402
-0.454119
-0.459982
-0.465997
-0.472172
-0.478513
-0.485026
-0.49172
-0.498601
-0.505676
-0.512955
-0.520447
-0.528162
-0.536109
-0.544298
-0.55274
-0.561447
-0.570431
-0.579707
-0.589289
-0.599191
-0.609429
-0.620019
-0.630981
-0.642333
-0.654092
-0.666279
-0.678913
-0.692008
-0.705565
-0.719479
-0.382548
-0.386639
-0.390764
-0.394952
-0.399218
-0.403568
-0.408007
-0.41254
-0.417171
-0.421904
-0.426743
-0.43169
-0.43675
-0.441929
-0.44723
-0.452659
-0.45822
-0.463918
-0.469759
-0.475749
-0.481891
-0.488193
-0.494662
-0.501304
-0.508128
-0.515141
-0.522348
-0.52976
-0.537386
-0.545234
-0.553317
-0.561643
-0.570222
-0.579066
-0.588188
-0.597601
-0.60732
-0.617358
-0.627733
-0.638459
-0.649555
-0.66104
-0.672932
-0.685249
-0.69801
-0.711234
-0.72494
-0.739175
-0.754122
-0.433333
-0.437778
-0.442387
-0.447117
-0.45195
-0.456882
-0.461915
-0.467052
-0.472299
-0.477659
-0.483138
-0.488739
-0.494469
-0.500332
-0.506334
-0.512479
-0.518774
-0.525225
-0.531838
-0.538618
-0.545572
-0.552706
-0.560029
-0.567549
-0.575275
-0.583214
-0.591374
-0.599765
-0.608398
-0.617284
-0.626434
-0.63586
-0.645573
-0.655587
-0.665915
-0.676573
-0.687576
-0.698943
-0.710691
-0.722838
-0.735404
-0.748412
-0.761883
-0.775838
-0.790295
-0.805269
-0.82076
-0.836722
-0.852933
-0.440271
-0.445184
-0.450054
-0.454952
-0.459911
-0.464951
-0.470082
-0.475315
-0.480656
-0.486111
-0.491686
-0.497385
-0.503214
-0.50918
-0.515286
-0.521539
-0.527944
-0.534508
-0.541237
-0.548136
-0.555212
-0.562472
-0.569924
-0.577576
-0.585438
-0.593516
-0.601821
-0.61036
-0.619145
-0.628188
-0.6375
-0.647093
-0.656978
-0.667169
-0.67768
-0.688527
-0.699727
-0.711297
-0.723255
-0.73562
-0.748414
-0.76166
-0.775379
-0.789596
-0.804332
-0.819606
-0.835431
-0.851827
-0.868884
-0.500312
-0.505459
-0.510793
-0.516258
-0.521837
-0.527526
-0.533328
-0.53925
-0.545298
-0.551478
-0.557795
-0.564254
-0.570862
-0.577625
-0.584549
-0.59164
-0.598904
-0.606348
-0.61398
-0.621805
-0.629831
-0.638066
-0.646518
-0.655199
-0.664116
-0.673281
-0.682701
-0.692387
-0.702353
-0.712611
-0.723175
-0.734057
-0.745271
-0.756831
-0.768756
-0.781062
-0.793768
-0.806895
-0.820464
-0.834496
-0.849017
-0.864054
-0.879636
-0.895791
-0.91255
-0.929942
-0.94799
-0.966691
-0.985973
-0.500213
-0.505694
-0.511145
-0.516639
-0.522213
-0.527885
-0.53367
-0.539576
-0.545611
-0.55178
-0.55809
-0.564544
-0.571148
-0.577909
-0.584832
-0.591923
-0.599187
-0.606633
-0.614267
-0.622094
-0.630123
-0.638361
-0.646817
-0.655501
-0.664422
-0.67359
-0.683014
-0.692705
-0.702675
-0.712938
-0.723507
-0.734394
-0.745613
-0.757179
-0.76911
-0.781422
-0.794136
-0.807271
-0.820848
-0.83489
-0.849424
-0.864478
-0.880083
-0.896272
-0.913082
-0.930557
-0.94874
-0.967659
-0.987223
-0.562478
-0.568229
-0.574115
-0.580141
-0.586306
-0.592612
-0.599062
-0.605661
-0.612412
-0.61932
-0.626389
-0.633624
-0.641029
-0.648612
-0.656378
-0.664332
-0.672483
-0.680838
-0.689403
-0.698187
-0.707197
-0.716442
-0.725931
-0.735677
-0.745689
-0.755978
-0.766555
-0.777431
-0.788621
-0.800139
-0.812
-0.824219
-0.83681
-0.849791
-0.863181
-0.877
-0.891268
-0.90601
-0.921249
-0.937011
-0.953326
-0.970227
-0.987749
-1.00593
-1.02483
-1.0445
-1.06505
-1.08668
-1.10996
-0.567667
-0.573076
-0.578795
-0.584742
-0.590876
-0.597179
-0.603643
-0.610266
-0.617049
-0.623996
-0.631107
-0.638387
-0.645842
-0.653477
-0.661297
-0.669308
-0.677518
-0.685933
-0.694561
-0.70341
-0.712486
-0.721799
-0.731359
-0.741177
-0.751264
-0.76163
-0.772285
-0.783242
-0.794515
-0.806119
-0.818069
-0.830379
-0.843064
-0.856142
-0.869632
-0.883554
-0.897929
-0.912781
-0.928134
-0.944014
-0.960451
-0.977478
-0.995132
-1.01345
-1.03249
-1.0523
-1.07294
-1.09446
-1.11667
-0.616649
-0.623141
-0.629633
-0.636219
-0.642941
-0.649817
-0.656855
-0.664061
-0.671441
-0.678997
-0.686733
-0.694653
-0.702763
-0.71107
-0.719578
-0.728294
-0.737226
-0.746383
-0.755771
-0.765399
-0.775274
-0.785408
-0.79581
-0.806493
-0.817469
-0.828748
-0.840342
-0.852265
-0.864531
-0.877157
-0.89016
-0.903554
-0.917357
-0.931586
-0.946264
-0.961412
-0.977053
-0.993212
-1.00992
-1.02719
-1.04507
-1.06359
-1.08279
-1.1027
-1.12338
-1.14489
-1.16729
-1.19074
-1.21566
-0.634309
-0.640436
-0.646892
-0.653582
-0.660465
-0.667525
-0.674759
-0.682167
-0.689753
-0.697519
-0.705468
-0.713607
-0.72194
-0.730474
-0.739216
-0.74817
-0.757347
-0.766753
-0.776397
-0.786288
-0.796433
-0.806843
-0.817529
-0.828504
-0.839778
-0.851365
-0.863275
-0.875523
-0.888124
-0.901095
-0.914452
-0.928211
-0.94239
-0.957008
-0.972085
-0.987645
-1.00371
-1.02031
-1.03747
-1.05521
-1.07357
-1.09258
-1.11229
-1.13272
-1.15391
-1.17592
-1.19878
-1.22246
-1.24662
-0.668466
-0.675638
-0.682776
-0.689994
-0.697343
-0.704846
-0.712516
-0.72036
-0.728387
-0.7366
-0.745004
-0.753606
-0.762412
-0.771428
-0.780663
-0.790122
-0.799815
-0.80975
-0.819936
-0.830382
-0.841096
-0.85209
-0.863376
-0.874966
-0.886873
-0.899109
-0.911687
-0.924621
-0.937929
-0.951626
-0.965732
-0.980262
-0.995236
-1.01067
-1.02659
-1.04303
-1.05999
-1.07752
-1.09563
-1.11436
-1.13375
-1.15381
-1.1746
-1.19615
-1.21849
-1.24167
-1.26575
-1.29084
-1.31744
-0.699693
-0.706513
-0.713715
-0.721176
-0.728845
-0.7367
-0.744737
-0.752957
-0.761364
-0.769964
-0.778761
-0.787761
-0.796973
-0.806404
-0.816061
-0.825952
-0.836087
-0.846474
-0.857124
-0.868045
-0.879246
-0.890739
-0.902536
-0.914652
-0.927099
-0.93989
-0.953039
-0.96656
-0.980471
-0.994789
-1.00953
-1.02472
-1.04038
-1.05651
-1.07315
-1.09033
-1.10806
-1.12638
-1.14532
-1.16489
-1.18515
-1.20612
-1.22784
-1.25034
-1.27365
-1.29782
-1.32283
-1.34863
-1.37477
-0.718179
-0.726053
-0.733865
-0.741742
-0.749742
-0.75789
-0.766203
-0.774691
-0.783363
-0.792228
-0.801291
-0.810561
-0.820047
-0.829756
-0.839696
-0.849877
-0.860307
-0.870997
-0.881956
-0.893194
-0.904721
-0.916547
-0.928687
-0.941154
-0.953962
-0.967124
-0.980653
-0.994566
-1.00888
-1.02361
-1.03878
-1.05441
-1.07052
-1.08712
-1.10425
-1.12192
-1.14017
-1.15901
-1.17849
-1.19864
-1.21948
-1.24105
-1.26339
-1.28654
-1.31052
-1.33537
-1.36112
-1.38786
-1.41605
-0.763451
-0.771074
-0.779107
-0.787398
-0.795886
-0.804552
-0.813397
-0.822424
-0.831645
-0.841066
-0.850696
-0.860544
-0.870618
-0.880929
-0.891485
-0.902296
-0.913371
-0.924721
-0.936357
-0.948289
-0.960527
-0.973083
-0.985972
-0.999208
-1.01281
-1.02678
-1.04114
-1.05591
-1.07111
-1.08675
-1.10286
-1.11945
-1.13655
-1.15418
-1.17236
-1.19112
-1.21049
-1.2305
-1.25118
-1.27257
-1.2947
-1.31761
-1.34133
-1.36592
-1.3914
-1.4178
-1.44511
-1.47316
-1.50124
-0.765769
-0.774645
-0.783272
-0.79186
-0.800511
-0.80928
-0.818199
-0.827291
-0.83657
-0.84605
-0.855738
-0.865644
-0.875779
-0.886151
-0.89677
-0.907645
-0.918786
-0.930204
-0.941909
-0.953912
-0.966223
-0.978854
-0.991819
-1.00513
-1.01881
-1.03287
-1.04732
-1.06218
-1.07746
-1.0932
-1.1094
-1.12609
-1.14329
-1.16102
-1.17931
-1.19818
-1.21767
-1.2378
-1.2586
-1.28012
-1.30238
-1.32543
-1.34932
-1.37407
-1.39976
-1.42643
-1.45413
-1.48296
-1.51313
-0.82337
-0.831865
-0.840611
-0.849559
-0.858695
-0.868018
-0.877535
-0.887254
-0.897185
-0.907337
-0.917718
-0.928335
-0.939199
-0.950319
-0.961705
-0.973366
-0.985313
-0.997557
-1.01011
-1.02298
-1.03618
-1.04973
-1.06363
-1.07791
-1.09258
-1.10766
-1.12315
-1.13908
-1.15548
-1.17235
-1.18973
-1.20763
-1.22607
-1.24509
-1.2647
-1.28494
-1.30583
-1.32742
-1.34974
-1.37281
-1.39669
-1.42142
-1.44704
-1.47363
-1.50122
-1.52992
-1.55984
-1.59122
-1.62465
-0.824867
-0.833051
-0.84158
-0.850381
-0.859416
-0.86867
-0.87814
-0.887828
-0.897739
-0.907878
-0.918251
-0.928865
-0.939728
-0.95085
-0.962239
-0.973905
-0.985857
-0.998106
-1.01067
-1.02354
-1.03675
-1.05031
-1.06422
-1.0785
-1.09318
-1.10826
-1.12377
-1.13971
-1.15611
-1.173
-1.19038
-1.20829
-1.22674
-1.24577
-1.26539
-1.28564
-1.30655
-1.32815
-1.35048
-1.37356
-1.39746
-1.4222
-1.44785
-1.47445
-1.50208
-1.53082
-1.56074
-1.59191
-1.62402
-0.872508
-0.881784
-0.891044
-0.900428
-0.909997
-0.919776
-0.92978
-0.940016
-0.950492
-0.961213
-0.972185
-0.983415
-0.994911
-1.00668
-1.01874
-1.03109
-1.04374
-1.05671
-1.07
-1.08364
-1.09762
-1.11197
-1.1267
-1.14182
-1.15736
-1.17333
-1.18974
-1.20662
-1.22399
-1.24186
-1.26027
-1.27923
-1.29877
-1.31891
-1.33968
-1.36112
-1.38326
-1.40612
-1.42976
-1.4542
-1.4795
-1.50569
-1.53284
-1.56099
-1.59023
-1.62062
-1.65231
-1.68554
-1.72115
-0.886224
-0.89458
-0.903505
-0.912811
-0.922415
-0.932281
-0.942395
-0.952755
-0.963364
-0.974224
-0.985341
-0.99672
-1.00837
-1.0203
-1.03252
-1.04503
-1.05785
-1.071
-1.08447
-1.09829
-1.11246
-1.12701
-1.14193
-1.15726
-1.17301
-1.1892
-1.20583
-1.22294
-1.24054
-1.25866
-1.27731
-1.29653
-1.31633
-1.33674
-1.3578
-1.37953
-1.40196
-1.42514
-1.44909
-1.47386
-1.49949
-1.52603
-1.55353
-1.58204
-1.61162
-1.64233
-1.67421
-1.7072
-1.7407
-0.916363
-0.926287
-0.936098
-0.945996
-0.956067
-0.966352
-0.976867
-0.987624
-0.998633
-1.0099
-1.02143
-1.03323
-1.04531
-1.05767
-1.07034
-1.08331
-1.09661
-1.11023
-1.1242
-1.13853
-1.15322
-1.1683
-1.18377
-1.19966
-1.21599
-1.23277
-1.25001
-1.26775
-1.28599
-1.30477
-1.32411
-1.34403
-1.36455
-1.38572
-1.40754
-1.43007
-1.45332
-1.47735
-1.50217
-1.52785
-1.55441
-1.58192
-1.61041
-1.63994
-1.67055
-1.70232
-1.7353
-1.76969
-1.80624
-0.94471
-0.953761
-0.963401
-0.973428