/*--------------------------------*- C++ -*----------------------------------*\
  =========                 |
  \\      /  F ield         | OpenFOAM: The Open Source CFD Toolbox
   \\    /   O peration     | Website:  https://openfoam.org
    \\  /    A nd           | Version:  6
     \\/     M anipulation  |
\*---------------------------------------------------------------------------*/
FoamFile
{
    version     2.0;
    format      ascii;
    class       volScalarField;
    location    "90";
    object      gradTy;
}
// * * * * * * * * * * * * * * * * * * * * * * * * * * * * * * * * * * * * * //

dimensions      [0 -1 0 1 0 0 0];

internalField   nonuniform List<scalar> 
13524
(
1.99454
2.01778
2.04035
2.06279
2.08537
2.10822
2.13146
2.15515
2.17932
2.20402
2.22926
2.25507
2.28147
2.30848
2.33615
2.36449
2.39352
2.42327
2.45376
2.48503
2.5171
2.55001
2.58379
2.61847
2.65411
2.69072
2.72836
2.76707
2.80689
2.84788
2.89009
2.93358
2.97839
3.02458
3.07222
3.12138
3.17215
3.22459
3.27878
3.33483
3.39282
3.45289
3.51513
3.57967
3.64667
3.71629
3.78878
3.86448
3.94415
2.00019
2.01991
2.04084
2.06251
2.0847
2.10738
2.13054
2.15418
2.17833
2.203
2.22823
2.25402
2.28041
2.30742
2.33507
2.3634
2.39242
2.42216
2.45263
2.48388
2.51594
2.54883
2.58259
2.61727
2.65288
2.68948
2.7271
2.76579
2.80559
2.84657
2.88877
2.93223
2.97702
3.02318
3.07081
3.11996
3.1707
3.2231
3.27726
3.33327
3.39124
3.45125
3.51342
3.57786
3.64467
3.71395
3.78564
3.85931
3.93284
1.91587
1.93702
1.9579
1.97891
2.00023
2.02195
2.04411
2.06674
2.08987
2.11352
2.13771
2.16244
2.18774
2.21364
2.24018
2.26736
2.29519
2.32371
2.35295
2.38293
2.41369
2.44524
2.47764
2.5109
2.54506
2.58017
2.61627
2.65339
2.69158
2.7309
2.77137
2.81306
2.85602
2.90032
2.94601
2.99316
3.04183
3.0921
3.14406
3.19779
3.25339
3.31094
3.37055
3.43233
3.49635
3.5627
3.63147
3.70288
3.77832
1.88942
1.90753
1.9268
1.94685
1.96751
1.98868
2.01035
2.03253
2.05523
2.07845
2.1022
2.12649
2.15136
2.17683
2.20292
2.22963
2.25699
2.28503
2.31378
2.34327
2.37352
2.40455
2.4364
2.4691
2.5027
2.53722
2.57272
2.60923
2.64678
2.68543
2.72523
2.76623
2.80849
2.85205
2.89697
2.94332
2.99118
3.04062
3.09172
3.14456
3.19922
3.25581
3.31443
3.37517
3.43811
3.50333
3.57081
3.64029
3.71029
1.83273
1.85258
1.87219
1.89199
1.91213
1.93269
1.95373
1.97525
1.99727
2.01979
2.04285
2.06645
2.09061
2.11536
2.14069
2.16664
2.19322
2.22047
2.24842
2.27707
2.30646
2.33661
2.36755
2.39933
2.43199
2.46555
2.50004
2.53551
2.572
2.60956
2.64824
2.68808
2.72914
2.77147
2.81512
2.86017
2.90668
2.95472
3.00438
3.05572
3.10885
3.16386
3.22084
3.27989
3.34113
3.40466
3.47063
3.53941
3.61249
1.77244
1.78915
1.807
1.82562
1.84482
1.86455
1.88479
1.90551
1.92672
1.94844
1.97067
1.99344
2.01674
2.0406
2.06504
2.09006
2.11571
2.142
2.16896
2.19659
2.22493
2.25402
2.28387
2.31454
2.34604
2.3784
2.41167
2.44589
2.48109
2.51733
2.55464
2.59307
2.63267
2.6735
2.71562
2.75907
2.80394
2.85029
2.89819
2.94773
2.99899
3.05207
3.10707
3.16409
3.22326
3.28467
3.34843
3.41442
3.4814
1.74502
1.76356
1.78209
1.80086
1.81999
1.83956
1.85956
1.88003
1.90098
1.92243
1.94438
1.96684
1.98983
2.01337
2.03747
2.06217
2.08748
2.11342
2.14001
2.16727
2.19523
2.22393
2.25339
2.28365
2.31472
2.34665
2.37948
2.41324
2.44798
2.48372
2.52053
2.55845
2.59753
2.63782
2.67937
2.72224
2.76651
2.81224
2.85951
2.9084
2.95898
3.01137
3.06567
3.12198
3.18045
3.24125
3.30462
3.37108
3.44231
1.64973
1.6661
1.68317
1.70076
1.71883
1.73734
1.75628
1.77565
1.79547
1.81575
1.83651
1.85773
1.87945
1.90169
1.92447
1.94781
1.97171
1.99621
2.02132
2.04707
2.07349
2.1006
2.12842
2.15699
2.18634
2.21651
2.24752
2.2794
2.31221
2.34597
2.38074
2.41656
2.45347
2.49152
2.53077
2.57126
2.61308
2.65628
2.70093
2.74711
2.7949
2.84439
2.89568
2.9489
3.00416
3.06163
3.12148
3.18381
3.24804
1.64674
1.66373
1.68122
1.69911
1.71739
1.73603
1.75506
1.7745
1.79437
1.81468
1.83544
1.85666
1.87839
1.90063
1.92341
1.94673
1.97062
1.9951
2.0202
2.04595
2.07235
2.09944
2.12725
2.15581
2.18514
2.21529
2.24628
2.27815
2.31094
2.34469
2.37944
2.41524
2.45213
2.49015
2.52938
2.56985
2.61165
2.65483
2.69945
2.7456
2.79336
2.84282
2.89408
2.94724
3.00244
3.05984
3.11969
3.18244
3.2493
1.53154
1.54928
1.56654
1.58372
1.60102
1.61855
1.63639
1.65458
1.67314
1.6921
1.71147
1.73128
1.75155
1.7723
1.79354
1.81528
1.83756
1.8604
1.88381
1.90782
1.93244
1.9577
1.98363
2.01026
2.03762
2.06573
2.09463
2.12435
2.15492
2.18639
2.21879
2.25217
2.28657
2.32203
2.35861
2.39635
2.43533
2.47558
2.51719
2.56022
2.60475
2.65086
2.69862
2.74814
2.79952
2.85285
2.90826
2.96593
3.02626
1.5269
1.54214
1.55821
1.57479
1.59177
1.60911
1.62679
1.64485
1.66329
1.68213
1.70139
1.72109
1.74124
1.76186
1.78297
1.80459
1.82674
1.84944
1.87271
1.89657
1.92105
1.94616
1.97194
1.99842
2.02561
2.05356
2.08229
2.11183
2.14222
2.17351
2.20572
2.2389
2.2731
2.30836
2.34472
2.38224
2.42098
2.461
2.50237
2.54514
2.58939
2.63521
2.68267
2.73184
2.78281
2.83561
2.89023
2.94633
3.00248
1.43636
1.45211
1.46773
1.48349
1.49949
1.51578
1.53241
1.54938
1.56672
1.58445
1.60258
1.62112
1.64009
1.65951
1.67939
1.69975
1.72061
1.74199
1.7639
1.78638
1.80943
1.83309
1.85737
1.88231
1.90792
1.93424
1.96131
1.98913
2.01776
2.04722
2.07757
2.10882
2.14104
2.17424
2.20849
2.24383
2.28033
2.31802
2.35699
2.39727
2.43895
2.4821
2.52679
2.57308
2.62105
2.67075
2.72225
2.77571
2.8321
1.39939
1.41303
1.42743
1.44235
1.45769
1.4734
1.48947
1.50591
1.52273
1.53993
1.55752
1.57553
1.59395
1.61281
1.63212
1.65191
1.67218
1.69295
1.71425
1.73609
1.7585
1.78148
1.80508
1.82931
1.85421
1.87979
1.90609
1.93313
1.96095
1.98959
2.01908
2.04946
2.08076
2.11303
2.14632
2.18067
2.21614
2.25278
2.29064
2.3298
2.37031
2.41225
2.45569
2.50069
2.54732
2.59565
2.64567
2.69726
2.74954
1.33693
1.35128
1.36555
1.37999
1.39469
1.40969
1.42503
1.44072
1.45678
1.47321
1.49002
1.50722
1.52483
1.54286
1.56133
1.58025
1.59964
1.61951
1.63988
1.66077
1.6822
1.70419
1.72677
1.74995
1.77376
1.79824
1.82339
1.84926
1.87588
1.90327
1.93148
1.96054
1.99049
2.02136
2.05321
2.08607
2.12
2.15505
2.19128
2.22875
2.26751
2.30765
2.34922
2.39231
2.437
2.48336
2.5315
2.58169
2.63488
1.26862
1.28087
1.29379
1.30717
1.32093
1.33505
1.34952
1.36434
1.37951
1.39505
1.41094
1.42722
1.44389
1.46096
1.47844
1.49635
1.51471
1.53352
1.55281
1.5726
1.59289
1.61371
1.63508
1.65703
1.67958
1.70276
1.72658
1.75107
1.77628
1.80222
1.82893
1.85645
1.8848
1.91404
1.94419
1.97531
2.00745
2.04064
2.07495
2.11044
2.14716
2.18519
2.22459
2.26545
2.30784
2.35186
2.39757
2.44492
2.49323
1.2333
1.24628
1.25927
1.27244
1.28588
1.29963
1.31371
1.32813
1.34289
1.358
1.37347
1.38931
1.40553
1.42215
1.43917
1.4566
1.47447
1.49278
1.51156
1.53081
1.55056
1.57083
1.59164
1.61301
1.63496
1.65752
1.6807
1.70455
1.72908
1.75434
1.78034
1.80713
1.83474
1.8632
1.89255
1.92285
1.95413
1.98645
2.01985
2.05441
2.09016
2.1272
2.16559
2.20542
2.24678
2.28978
2.33459
2.38148
2.43132
1.13533
1.14615
1.15759
1.16948
1.18175
1.19436
1.20729
1.22053
1.2341
1.24799
1.26221
1.27677
1.29168
1.30695
1.32259
1.33861
1.35503
1.37186
1.38912
1.40682
1.42497
1.4436
1.46272
1.48236
1.50253
1.52326
1.54457
1.56649
1.58904
1.61224
1.63614
1.66076
1.68614
1.71229
1.73927
1.76712
1.79587
1.82557
1.85628
1.88804
1.92091
1.95497
1.99027
2.02691
2.06498
2.1046
2.14589
2.18893
2.23334
1.12496
1.13646
1.14823
1.16028
1.17261
1.18522
1.19812
1.21132
1.22482
1.23863
1.25277
1.26724
1.28205
1.29722
1.31275
1.32866
1.34496
1.36167
1.3788
1.39637
1.41439
1.43288
1.45186
1.47135
1.49137
1.51195
1.5331
1.55485
1.57723
1.60027
1.62399
1.64843
1.67362
1.69958
1.72636
1.754
1.78254
1.81202
1.8425
1.87403
1.90666
1.94046
1.9755
2.01187
2.04966
2.08901
2.1301
2.17335
2.21992
1.00043
1.01139
1.02229
1.03328
1.04443
1.05577
1.06734
1.07915
1.09122
1.10356
1.11618
1.12908
1.14229
1.15581
1.16966
1.18384
1.19837
1.21326
1.22852
1.24418
1.26023
1.27671
1.29362
1.31099
1.32883
1.34717
1.36601
1.38539
1.40534
1.42586
1.447
1.46877
1.49121
1.51435
1.53821
1.56283
1.58826
1.61453
1.64169
1.66977
1.69884
1.72895
1.76016
1.79254
1.82616
1.86111
1.89748
1.93532
1.97445
1.00062
1.01092
1.02158
1.03251
1.04367
1.05505
1.06665
1.0785
1.09059
1.10295
1.11559
1.1285
1.14172
1.15524
1.16909
1.18327
1.1978
1.21269
1.22795
1.2436
1.25965
1.27612
1.29303
1.31039
1.32822
1.34655
1.36539
1.38476
1.40469
1.42521
1.44634
1.4681
1.49053
1.51365
1.5375
1.56211
1.58753
1.61378
1.64092
1.66898
1.69802
1.7281
1.75926
1.79157
1.82509
1.85988
1.89598
1.93338
1.97195
0.880536
0.890362
0.900103
0.909899
0.919819
0.929899
0.940162
0.950628
0.961311
0.972221
0.98337
0.994768
1.00643
1.01836
1.03057
1.04308
1.05589
1.06902
1.08247
1.09627
1.11042
1.12494
1.13984
1.15515
1.17087
1.18703
1.20364
1.22072
1.23829
1.25637
1.275
1.29418
1.31395
1.33433
1.35535
1.37705
1.39945
1.42259
1.4465
1.47123
1.49682
1.52331
1.55075
1.57919
1.60866
1.63921
1.67086
1.70366
1.73777
0.866665
0.875559
0.884777
0.894236
0.9039
0.913765
0.923831
0.934106
0.9446
0.95532
0.966278
0.977481
0.988941
1.00067
1.01267
1.02496
1.03755
1.05045
1.06368
1.07724
1.09114
1.10541
1.12006
1.1351
1.15055
1.16643
1.18275
1.19953
1.21679
1.23457
1.25287
1.27172
1.29114
1.31117
1.33183
1.35314
1.37515
1.39788
1.42138
1.44567
1.4708
1.49682
1.52376
1.55167
1.58059
1.61054
1.64152
1.67344
1.70587
0.7651
0.773284
0.781533
0.78991
0.798441
0.80714
0.816018
0.825084
0.834346
0.843811
0.853488
0.863383
0.873505
0.883863
0.894466
0.905323
0.916445
0.927841
0.939524
0.951503
0.963787
0.976391
0.989328
1.00261
1.01626
1.03029
1.0447
1.05953
1.07478
1.09047
1.10664
1.12329
1.14045
1.15814
1.17638
1.1952
1.21464
1.23472
1.25547
1.27692
1.29911
1.32208
1.34586
1.3705
1.39602
1.42247
1.44988
1.47835
1.50825
0.731215
0.738632
0.74631
0.754202
0.762284
0.770549
0.778996
0.787628
0.796454
0.805479
0.814708
0.824146
0.833802
0.843686
0.853805
0.864168
0.874783
0.88566
0.896812
0.908246
0.919972
0.932003
0.944353
0.957034
0.970061
0.983448
0.997209
1.01136
1.02592
1.0409
1.05633
1.07222
1.0886
1.10548
1.1229
1.14087
1.15942
1.17858
1.19838
1.21886
1.24004
1.26197
1.28467
1.30819
1.33256
1.35783
1.38402
1.41113
1.43896
0.64589
0.652663
0.659526
0.666518
0.673653
0.680943
0.688392
0.696006
0.703794
0.711759
0.719906
0.728239
0.736767
0.745496
0.754435
0.763589
0.772966
0.782577
0.79243
0.802532
0.812893
0.823523
0.834434
0.84564
0.857151
0.86898
0.881138
0.893641
0.906503
0.919743
0.933376
0.94742
0.961892
0.97681
0.992197
1.00807
1.02447
1.0414
1.0589
1.07699
1.09571
1.11508
1.13515
1.15594
1.1775
1.19986
1.2231
1.2473
1.27277
0.595804
0.601854
0.608089
0.614485
0.621031
0.627726
0.634574
0.64158
0.648748
0.656079
0.663579
0.671254
0.679109
0.687151
0.695386
0.70382
0.712462
0.721318
0.730398
0.739709
0.749258
0.759055
0.769113
0.77944
0.79005
0.800953
0.81216
0.823684
0.835539
0.847743
0.860309
0.873254
0.886593
0.900343
0.914526
0.929161
0.944271
0.959879
0.976009
0.992688
1.00994
1.02781
1.04632
1.0655
1.08539
1.10604
1.12749
1.14976
1.17272
0.523039
0.528447
0.533953
0.539572
0.545315
0.551185
0.557188
0.563332
0.569615
0.576044
0.582622
0.589354
0.596246
0.603303
0.610529
0.617932
0.625516
0.63329
0.641261
0.649434
0.657817
0.666418
0.675247
0.684315
0.693629
0.703201
0.713041
0.723158
0.733568
0.744282
0.755315
0.76668
0.778391
0.790464
0.802917
0.815767
0.829034
0.842739
0.856903
0.871551
0.886707
0.902401
0.918661
0.935521
0.953016
0.971187
0.990086
1.00979
1.03053
0.460992
0.465701
0.470521
0.475452
0.480499
0.485662
0.490945
0.496348
0.501875
0.507532
0.513322
0.519248
0.525315
0.531527
0.53789
0.544409
0.551089
0.557936
0.564956
0.572155
0.57954
0.587117
0.594896
0.602884
0.61109
0.619523
0.628191
0.637105
0.646276
0.655716
0.665436
0.675449
0.685768
0.696405
0.707377
0.7187
0.73039
0.742467
0.75495
0.76786
0.78122
0.795055
0.809394
0.824265
0.839701
0.855738
0.872412
0.889749
0.907687
0.396781
0.400826
0.404968
0.409209
0.413547
0.417985
0.422524
0.427165
0.431916
0.436779
0.441757
0.446852
0.452069
0.457411
0.462884
0.46849
0.474236
0.480125
0.486165
0.492359
0.498712
0.505231
0.511924
0.518797
0.525858
0.533115
0.540575
0.548246
0.556138
0.564262
0.572627
0.581245
0.590125
0.59928
0.608723
0.618468
0.628531
0.638927
0.649672
0.660786
0.672289
0.684204
0.696555
0.709368
0.722672
0.736502
0.750895
0.765913
0.78169
0.327258
0.330626
0.334055
0.337557
0.341133
0.344788
0.348525
0.352348
0.356262
0.36027
0.364372
0.36857
0.372869
0.377273
0.381784
0.386405
0.391142
0.395997
0.400976
0.406083
0.411322
0.416698
0.422217
0.427885
0.433708
0.439693
0.445846
0.452173
0.458682
0.465382
0.472282
0.47939
0.486715
0.494266
0.502056
0.510094
0.518395
0.526971
0.535837
0.545008
0.554501
0.564336
0.574533
0.585113
0.596104
0.60753
0.619421
0.631795
0.64462
0.267373
0.270055
0.272823
0.275663
0.278572
0.281548
0.284593
0.287712
0.290906
0.294176
0.297521
0.300947
0.304456
0.30805
0.311731
0.315503
0.319369
0.323333
0.327397
0.331566
0.335842
0.34023
0.344735
0.349362
0.354116
0.359002
0.364025
0.36919
0.374504
0.379974
0.385607
0.391411
0.397391
0.403557
0.409917
0.416481
0.42326
0.430264
0.437504
0.444995
0.452751
0.460786
0.469119
0.477768
0.486755
0.496103
0.505841
0.516006
0.526685
0.195027
0.197052
0.199093
0.201167
0.203285
0.205452
0.207672
0.209945
0.212273
0.214654
0.217093
0.219591
0.22215
0.224772
0.227457
0.230208
0.233028
0.235919
0.238884
0.241925
0.245044
0.248245
0.251532
0.254907
0.258375
0.261939
0.265603
0.26937
0.273247
0.277238
0.281347
0.285581
0.289944
0.294443
0.299083
0.303873
0.30882
0.313931
0.319216
0.324684
0.330346
0.336214
0.3423
0.348618
0.355187
0.362023
0.369147
0.376576
0.384297
0.13513
0.13641
0.137762
0.139168
0.14062
0.142112
0.143645
0.145214
0.146821
0.148467
0.150153
0.151881
0.153651
0.155463
0.15732
0.159224
0.161175
0.163174
0.165225
0.167328
0.169486
0.1717
0.173973
0.176307
0.178705
0.18117
0.183703
0.186308
0.188989
0.191749
0.194591
0.197519
0.200536
0.203648
0.206857
0.21017
0.213592
0.217128
0.220785
0.224568
0.228485
0.232545
0.236757
0.241131
0.245679
0.250417
0.255364
0.260557
0.266077
0.0646618
0.0653329
0.0660033
0.0666871
0.0673867
0.0681042
0.0688374
0.0695868
0.070355
0.0711432
0.0719512
0.0727785
0.0736256
0.0744937
0.0753836
0.0762957
0.0772307
0.0781891
0.0791718
0.0801799
0.081214
0.0822752
0.0833644
0.084483
0.085632
0.0868128
0.0880266
0.0892748
0.0905591
0.0918811
0.0932426
0.0946454
0.0960912
0.097582
0.0991202
0.100708
0.102348
0.104043
0.105795
0.107609
0.109487
0.111434
0.113454
0.115552
0.117734
0.120008
0.122383
0.12487
0.127465
-1.44816e-06
-2.90092e-06
-1.33787e-06
3.32952e-07
2.52302e-06
3.40338e-06
1.86143e-06
7.14874e-07
9.74227e-07
1.66507e-06
1.78467e-06
1.28191e-06
7.87767e-07
7.58812e-07
1.09236e-06
1.4282e-06
1.63179e-06
1.84274e-06
2.20293e-06
2.71438e-06
3.2429e-06
3.63047e-06
3.79926e-06
3.7882e-06
3.65765e-06
3.43637e-06
3.1326e-06
2.74147e-06
2.27688e-06
1.8028e-06
1.38044e-06
1.09338e-06
9.60696e-07
9.1961e-07
9.93726e-07
1.13274e-06
1.32571e-06
1.60548e-06
1.90935e-06
2.1883e-06
2.45051e-06
2.7683e-06
2.96403e-06
2.93218e-06
2.95549e-06
2.68299e-06
3.18374e-06
2.28718e-06
1.72567e-06
-0.0646623
-0.0653344
-0.0660041
-0.066686
-0.0673836
-0.0681003
-0.068834
-0.069584
-0.070352
-0.0711396
-0.0719472
-0.0727747
-0.073622
-0.07449
-0.0753793
-0.076291
-0.0772256
-0.0781837
-0.079166
-0.0801736
-0.0812074
-0.0822684
-0.0833578
-0.0844767
-0.0856262
-0.0868075
-0.0880219
-0.0892709
-0.090556
-0.091879
-0.0932414
-0.0946449
-0.0960913
-0.0975826
-0.0991208
-0.100709
-0.102348
-0.104043
-0.105795
-0.107608
-0.109486
-0.111432
-0.113452
-0.11555
-0.117732
-0.120006
-0.122382
-0.124869
-0.127465
-0.135125
-0.136402
-0.137755
-0.139164
-0.140617
-0.14211
-0.14364
-0.145207
-0.146813
-0.14846
-0.150146
-0.151873
-0.153641
-0.155453
-0.15731
-0.159213
-0.161164
-0.163163
-0.165214
-0.167317
-0.169475
-0.17169
-0.173963
-0.176298
-0.178697
-0.181162
-0.183696
-0.186303
-0.188985
-0.191745
-0.194588
-0.197517
-0.200535
-0.203646
-0.206856
-0.210169
-0.213591
-0.217127
-0.220783
-0.224566
-0.228483
-0.232543
-0.236755
-0.241128
-0.245677
-0.250414
-0.255362
-0.260554
-0.266074
-0.195025
-0.197048
-0.199089
-0.201166
-0.203287
-0.205454
-0.207672
-0.209943
-0.212269
-0.214652
-0.217091
-0.219588
-0.222145
-0.224766
-0.227451
-0.230203
-0.233023
-0.235914
-0.238879
-0.24192
-0.24504
-0.248242
-0.251529
-0.254904
-0.258373
-0.261937
-0.265601
-0.269369
-0.273246
-0.277237
-0.281347
-0.285581
-0.289944
-0.294443
-0.299084
-0.303874
-0.308821
-0.313932
-0.319218
-0.324686
-0.330348
-0.336216
-0.342302
-0.34862
-0.355188
-0.362024
-0.369149
-0.376577
-0.384297
-0.267375
-0.270058
-0.272825
-0.275665
-0.278573
-0.281549
-0.284596
-0.287716
-0.290909
-0.294178
-0.297523
-0.300949
-0.304458
-0.308052
-0.311734
-0.315506
-0.319372
-0.323336
-0.327401
-0.33157
-0.335846
-0.340235
-0.34474
-0.349367
-0.35412
-0.359006
-0.364028
-0.369192
-0.374505
-0.379974
-0.385607
-0.391409
-0.397389
-0.403554
-0.409914
-0.416478
-0.423257
-0.430261
-0.437502
-0.444993
-0.452749
-0.460785
-0.469117
-0.477767
-0.486753
-0.496102
-0.505838
-0.516004
-0.526682
-0.327262
-0.330634
-0.334062
-0.337561
-0.341134
-0.344789
-0.348529
-0.352355
-0.35627
-0.360278
-0.36438
-0.368579
-0.37288
-0.377284
-0.381796
-0.386418
-0.391155
-0.396011
-0.400991
-0.406098
-0.411337
-0.416712
-0.42223
-0.427898
-0.43372
-0.439704
-0.445855
-0.45218
-0.458688
-0.465386
-0.472285
-0.479392
-0.486716
-0.494266
-0.502055
-0.510094
-0.518395
-0.526971
-0.535837
-0.545008
-0.554502
-0.564336
-0.574533
-0.585115
-0.596105
-0.607531
-0.619421
-0.631795
-0.64462
-0.396777
-0.400824
-0.404968
-0.409208
-0.413546
-0.417984
-0.422524
-0.427168
-0.43192
-0.436784
-0.441762
-0.446859
-0.452076
-0.45742
-0.462893
-0.4685
-0.474246
-0.480136
-0.486176
-0.492369
-0.498722
-0.505241
-0.511933
-0.518805
-0.525865
-0.533121
-0.54058
-0.548249
-0.55614
-0.564263
-0.572627
-0.581244
-0.590123
-0.599277
-0.60872
-0.618465
-0.628527
-0.638923
-0.649669
-0.660783
-0.672287
-0.684202
-0.696554
-0.709367
-0.722671
-0.736499
-0.750893
-0.76591
-0.781688
-0.460988
-0.465695
-0.470516
-0.475451
-0.480501
-0.485664
-0.490945
-0.496348
-0.501876
-0.507534
-0.513325
-0.519251
-0.525318
-0.531531
-0.537894
-0.544413
-0.551093
-0.557939
-0.564959
-0.572158
-0.579542
-0.587119
-0.594897
-0.602884
-0.611089
-0.619522
-0.62819
-0.637103
-0.646273
-0.655713
-0.665433
-0.675446
-0.685764
-0.696401
-0.707373
-0.718696
-0.730386
-0.742464
-0.754947
-0.767857
-0.781217
-0.795053
-0.809392
-0.824263
-0.8397
-0.855737
-0.872412
-0.889748
-0.907687
-0.523039
-0.528445
-0.533951
-0.539572
-0.545315
-0.551185
-0.557188
-0.563329
-0.569612
-0.576041
-0.582619
-0.58935
-0.596241
-0.603297
-0.610523
-0.617925
-0.625509
-0.633282
-0.641252
-0.649425
-0.657808
-0.666409
-0.675237
-0.684304
-0.693619
-0.703191
-0.71303
-0.723147
-0.733556
-0.74427
-0.755303
-0.766669
-0.77838
-0.790453
-0.802906
-0.815756
-0.829024
-0.842729
-0.856894
-0.871542
-0.886699
-0.902393
-0.918654
-0.935513
-0.953008
-0.971181
-0.990081
-1.00979
-1.03053
-0.595807
-0.601857
-0.60809
-0.614485
-0.621029
-0.627724
-0.634573
-0.641578
-0.648744
-0.656074
-0.663574
-0.671248
-0.679102
-0.687144
-0.695378
-0.703812
-0.712452
-0.721308
-0.730388
-0.739698
-0.749247
-0.759044
-0.769101
-0.779429
-0.790038
-0.800941
-0.812148
-0.823672
-0.835528
-0.847732
-0.860298
-0.873243
-0.886582
-0.900333
-0.914515
-0.929151
-0.944261
-0.959869
-0.976
-0.992679
-1.00994
-1.0278
-1.04631
-1.06549
-1.08539
-1.10604
-1.12749
-1.14975
-1.17272
-0.645889
-0.652663
-0.659525
-0.666515
-0.673648
-0.680937
-0.688386
-0.696001
-0.703787
-0.711751
-0.719897
-0.72823
-0.736758
-0.745487
-0.754425
-0.763578
-0.772955
-0.782565
-0.792417
-0.802519
-0.81288
-0.82351
-0.834421
-0.845627
-0.857138
-0.868967
-0.881126
-0.893629
-0.906492
-0.919732
-0.933366
-0.94741
-0.961882
-0.9768
-0.992187
-1.00806
-1.02446
-1.04139
-1.05889
-1.07698
-1.0957
-1.11507
-1.13514
-1.15593
-1.17749
-1.19986
-1.22309
-1.24729
-1.27277
-0.731214
-0.738632
-0.746311
-0.754201
-0.762283
-0.770547
-0.778993
-0.787626
-0.796452
-0.805476
-0.814704
-0.824142
-0.833798
-0.843681
-0.8538
-0.864161
-0.874776
-0.885653
-0.896804
-0.908238
-0.919964
-0.931995
-0.944344
-0.957025
-0.970053
-0.98344
-0.997201
-1.01135
-1.02591
-1.04089
-1.05632
-1.07222
-1.0886
-1.10548
-1.12289
-1.14086
-1.15941
-1.17858
-1.19838
-1.21886
-1.24004
-1.26196
-1.28467
-1.30818
-1.33256
-1.35783
-1.38402
-1.41113
-1.43896
-0.765095
-0.773278
-0.781527
-0.789904
-0.798436
-0.807136
-0.816015
-0.82508
-0.834343
-0.843809
-0.853485
-0.863379
-0.8735
-0.883858
-0.894461
-0.905318
-0.91644
-0.927836
-0.939519
-0.951497
-0.963782
-0.976386
-0.989323
-1.00261
-1.01626
-1.03028
-1.0447
-1.05952
-1.07477
-1.09047
-1.10663
-1.12329
-1.14044
-1.15813
-1.17638
-1.1952
-1.21464
-1.23472
-1.25547
-1.27692
-1.29911
-1.32208
-1.34586
-1.3705
-1.39602
-1.42247
-1.44988
-1.47835
-1.50824
-0.866665
-0.875556
-0.884775
-0.894234
-0.9039
-0.913764
-0.923829
-0.934104
-0.944598
-0.955319
-0.966276
-0.977478
-0.988937
-1.00066
-1.01267
-1.02496
-1.03755
-1.05045
-1.06368
-1.07724
-1.09114
-1.10541
-1.12006
-1.1351
-1.15055
-1.16643
-1.18275
-1.19953
-1.2168
-1.23457
-1.25287
-1.27172
-1.29115
-1.31117
-1.33183
-1.35315
-1.37515
-1.39789
-1.42138
-1.44568
-1.47081
-1.49682
-1.52377
-1.55168
-1.58059
-1.61054
-1.64152
-1.67344
-1.70587
-0.880542
-0.890368
-0.900109
-0.909905
-0.919823
-0.929901
-0.940164
-0.95063
-0.961312
-0.972222
-0.983371
-0.994769
-1.00643
-1.01836
-1.03057
-1.04308
-1.05589
-1.06902
-1.08247
-1.09627
-1.11042
-1.12494
-1.13985
-1.15515
-1.17088
-1.18703
-1.20364
-1.22072
-1.23829
-1.25638
-1.275
-1.29419
-1.31396
-1.33434
-1.35536
-1.37705
-1.39945
-1.42259
-1.44651
-1.47124
-1.49683
-1.52332
-1.55076
-1.57919
-1.60866
-1.63921
-1.67086
-1.70365
-1.73777
-1.00062
-1.01092
-1.02159
-1.03252
-1.04367
-1.05505
-1.06666
-1.0785
-1.0906
-1.10296
-1.11559
-1.12851
-1.14172
-1.15525
-1.1691
-1.18328
-1.19781
-1.2127
-1.22796
-1.24361
-1.25966
-1.27613
-1.29304
-1.3104
-1.32823
-1.34656
-1.3654
-1.38477
-1.40471
-1.42522
-1.44635
-1.46811
-1.49054
-1.51366
-1.53751
-1.56212
-1.58754
-1.61379
-1.64093
-1.66899
-1.69803
-1.72811
-1.75927
-1.79158
-1.8251
-1.85988
-1.89598
-1.93338
-1.97195
-1.00043
-1.01139
-1.02229
-1.03328
-1.04443
-1.05577
-1.06734
-1.07915
-1.09122
-1.10356
-1.11618
-1.12909
-1.1423
-1.15582
-1.16966
-1.18385
-1.19837
-1.21327
-1.22853
-1.24419
-1.26025
-1.27672
-1.29363
-1.311
-1.32884
-1.34718
-1.36603
-1.38541
-1.40535
-1.42588
-1.44701
-1.46879
-1.49123
-1.51436
-1.53822
-1.56284
-1.58827
-1.61454
-1.6417
-1.66978
-1.69885
-1.72896
-1.76017
-1.79254
-1.82616
-1.86111
-1.89748
-1.93532
-1.97445
-1.12496
-1.13646
-1.14823
-1.16028
-1.17261
-1.18522
-1.19812
-1.21132
-1.22482
-1.23864
-1.25278
-1.26725
-1.28206
-1.29722
-1.31276
-1.32866
-1.34497
-1.36168
-1.37881
-1.39637
-1.41439
-1.43288
-1.45186
-1.47135
-1.49138
-1.51196
-1.53311
-1.55486
-1.57724
-1.60028
-1.624
-1.64844
-1.67362
-1.69958
-1.72636
-1.754
-1.78254
-1.81202
-1.8425
-1.87402
-1.90665
-1.94045
-1.9755
-2.01187
-2.04966
-2.08901
-2.1301
-2.17335
-2.21992
-1.13533
-1.14615
-1.15759
-1.16948
-1.18175
-1.19436
-1.20729
-1.22053
-1.2341
-1.24799
-1.26221
-1.27677
-1.29168
-1.30695
-1.32259
-1.33862
-1.35504
-1.37187
-1.38912
-1.40682
-1.42497
-1.4436
-1.46272
-1.48235
-1.50253
-1.52326
-1.54457
-1.56648
-1.58903
-1.61224
-1.63614
-1.66076
-1.68613
-1.71228
-1.73926
-1.76711
-1.79586
-1.82556
-1.85627
-1.88803
-1.9209
-1.95496
-1.99026
-2.0269
-2.06498
-2.10459
-2.14588
-2.18893
-2.23334
-1.2333
-1.24628
-1.25927
-1.27244
-1.28588
-1.29963
-1.31371
-1.32812
-1.34288
-1.35799
-1.37347
-1.38931
-1.40553
-1.42214
-1.43916
-1.45659
-1.47445
-1.49277
-1.51154
-1.5308
-1.55055
-1.57082
-1.59162
-1.61299
-1.63494
-1.6575
-1.68068
-1.70453
-1.72906
-1.75431
-1.78032
-1.80711
-1.83471
-1.86317
-1.89253
-1.92282
-1.95411
-1.98642
-2.01983
-2.05438
-2.09014
-2.12718
-2.16557
-2.2054
-2.24677
-2.28977
-2.33458
-2.38148
-2.43132
-1.26862
-1.28087
-1.29378
-1.30716
-1.32093
-1.33505
-1.34952
-1.36433
-1.37951
-1.39504
-1.41094
-1.42721
-1.44388
-1.46095
-1.47843
-1.49634
-1.51469
-1.53351
-1.55279
-1.57258
-1.59287
-1.61369
-1.63506
-1.65701
-1.67956
-1.70273
-1.72655
-1.75105
-1.77625
-1.80219
-1.8289
-1.85642
-1.88478
-1.91402
-1.94417
-1.97529
-2.00742
-2.04062
-2.07493
-2.11042
-2.14714
-2.18516
-2.22457
-2.26543
-2.30783
-2.35185
-2.39756
-2.44491
-2.49323
-1.33693
-1.35128
-1.36555
-1.37999
-1.39469
-1.40969
-1.42503
-1.44072
-1.45677
-1.4732
-1.49001
-1.50721
-1.52482
-1.54286
-1.56133
-1.58024
-1.59963
-1.6195
-1.63987
-1.66076
-1.68219
-1.70418
-1.72675
-1.74993
-1.77375
-1.79822
-1.82337
-1.84924
-1.87586
-1.90325
-1.93146
-1.96052
-1.99047
-2.02134
-2.05319
-2.08605
-2.11998
-2.15504
-2.19126
-2.22873
-2.26749
-2.30763
-2.34921
-2.3923
-2.43698
-2.48335
-2.5315
-2.58168
-2.63487
-1.39939
-1.41303
-1.42743
-1.44235
-1.45769
-1.4734
-1.48947
-1.50591
-1.52273
-1.53993
-1.55752
-1.57552
-1.59395
-1.61281
-1.63212
-1.6519
-1.67217
-1.69295
-1.71425
-1.73609
-1.75849
-1.78148
-1.80507
-1.8293
-1.8542
-1.87978
-1.90608
-1.93312
-1.96094
-1.98958
-2.01907
-2.04945
-2.08075
-2.11302
-2.14631
-2.18066
-2.21613
-2.25276
-2.29063
-2.32979
-2.3703
-2.41224
-2.45567
-2.50067
-2.54731
-2.59563
-2.64566
-2.69725
-2.74953
-1.43636
-1.45211
-1.46773
-1.48348
-1.49948
-1.51578
-1.53241
-1.54938
-1.56673
-1.58446
-1.60258
-1.62112
-1.64009
-1.65951
-1.67939
-1.69975
-1.72061
-1.74199
-1.76391
-1.78639
-1.80944
-1.83309
-1.85737
-1.88231
-1.90792
-1.93425
-1.96131
-1.98913
-2.01776
-2.04722
-2.07757
-2.10883
-2.14104
-2.17424
-2.20849
-2.24384
-2.28033
-2.31803
-2.35699
-2.39727
-2.43895
-2.4821
-2.52679
-2.57308
-2.62105
-2.67075
-2.72224
-2.77571
-2.8321
-1.5269
-1.54215
-1.55821
-1.5748
-1.59177
-1.6091
-1.62679
-1.64485
-1.66329
-1.68213
-1.70139
-1.72109
-1.74124
-1.76186
-1.78297
-1.80459
-1.82674
-1.84944
-1.87271
-1.89658
-1.92105
-1.94617
-1.97194
-1.99842
-2.02561
-2.05356
-2.08229
-2.11183
-2.14222
-2.17351
-2.20572
-2.23891
-2.2731
-2.30836
-2.34472
-2.38224
-2.42098
-2.46101
-2.50237
-2.54514
-2.5894
-2.63521
-2.68267
-2.73184
-2.7828
-2.83561
-2.89022
-2.94632
-3.00247
-1.53154
-1.54929
-1.56654
-1.58372
-1.60102
-1.61856
-1.6364
-1.65458
-1.67314
-1.6921
-1.71148
-1.73129
-1.75156
-1.7723
-1.79354
-1.81529
-1.83757
-1.86041
-1.88382
-1.90782
-1.93245
-1.95771
-1.98364
-2.01027
-2.03763
-2.06574
-2.09464
-2.12435
-2.15493
-2.18639
-2.2188
-2.25218
-2.28658
-2.32204
-2.35862
-2.39637
-2.43534
-2.4756
-2.51721
-2.56024
-2.60476
-2.65086
-2.69863
-2.74815
-2.79952
-2.85285
-2.90826
-2.96592
-3.02625
-1.64674
-1.66373
-1.68122
-1.69912
-1.71739
-1.73604
-1.75507
-1.77451
-1.79437
-1.81467
-1.83544
-1.85667
-1.8784
-1.90064
-1.92341
-1.94673
-1.97063
-1.99511
-2.02022
-2.04596
-2.07237
-2.09946
-2.12726
-2.15582
-2.18516
-2.21531
-2.2463
-2.27817
-2.31096
-2.3447
-2.37945
-2.41525
-2.45214
-2.49017
-2.5294
-2.56987
-2.61167
-2.65484
-2.69947
-2.74562
-2.79338
-2.84283
-2.89409
-2.94725
-3.00245
-3.05985
-3.11969
-3.18244
-3.24929
-1.64973
-1.6661
-1.68316
-1.70076
-1.71883
-1.73734
-1.75628
-1.77566
-1.79548
-1.81576
-1.8365
-1.85773
-1.87946
-1.9017
-1.92448
-1.94781
-1.97171
-1.99621
-2.02133
-2.04709
-2.0735
-2.10061
-2.12843
-2.15701
-2.18636
-2.21653
-2.24753
-2.27942
-2.31222
-2.34599
-2.38076
-2.41658
-2.45349
-2.49154
-2.53078
-2.57129
-2.6131
-2.6563
-2.70095
-2.74713
-2.79491
-2.8444
-2.8957
-2.94891
-3.00417
-3.06163
-3.12148
-3.18381
-3.24804
-1.74502
-1.76357
-1.78209
-1.80086
-1.81999
-1.83955
-1.85956
-1.88003
-1.90098
-1.92243
-1.94437
-1.96683
-1.98982
-2.01337
-2.03748
-2.06217
-2.08748
-2.11341
-2.14
-2.16727
-2.19524
-2.22394
-2.25339
-2.28365
-2.31472
-2.34666
-2.37949
-2.41325
-2.44798
-2.48372
-2.52053
-2.55846
-2.59753
-2.63781
-2.67936
-2.72224
-2.76651
-2.81225
-2.85952
-2.9084
-2.95899
-3.01138
-3.06567
-3.12199
-3.18045
-3.24125
-3.30462
-3.37108
-3.44231
-1.77245
-1.78916
-1.80701
-1.82562
-1.84483
-1.86456
-1.88479
-1.90551
-1.92673
-1.94845
-1.97068
-1.99344
-2.01674
-2.0406
-2.06503
-2.09006
-2.11571
-2.14199
-2.16894
-2.19658
-2.22493
-2.25401
-2.28387
-2.31453
-2.34603
-2.37839
-2.41167
-2.44588
-2.48108
-2.51731
-2.55462
-2.59305
-2.63266
-2.67349
-2.7156
-2.75905
-2.80392
-2.85027
-2.89818
-2.94772
-2.99898
-3.05206
-3.10706
-3.16408
-3.22324
-3.28466
-3.34842
-3.41441
-3.48139
-1.83273
-1.85257
-1.8722
-1.89199
-1.91213
-1.9327
-1.95373
-1.97525
-1.99727
-2.0198
-2.04286
-2.06645
-2.09061
-2.11535
-2.14068
-2.16663
-2.19322
-2.22047
-2.24841
-2.27706
-2.30644
-2.33659
-2.36754
-2.39933
-2.43198
-2.46553
-2.50002
-2.53549
-2.57198
-2.60954
-2.64822
-2.68806
-2.72911
-2.77143
-2.81509
-2.86013
-2.90664
-2.95469
-3.00435
-3.0557
-3.10883
-3.16384
-3.22082
-3.27987
-3.34111
-3.40464
-3.47061
-3.53939
-3.61247
-1.88942
-1.90752
-1.9268
-1.94686
-1.9675
-1.98868
-2.01035
-2.03253
-2.05522
-2.07844
-2.10219
-2.12649
-2.15136
-2.17683
-2.2029
-2.22961
-2.25697
-2.28502
-2.31377
-2.34326
-2.3735
-2.40452
-2.43637
-2.46908
-2.50268
-2.53721
-2.57271
-2.60921
-2.64676
-2.68541
-2.72521
-2.76621
-2.80845
-2.85201
-2.89693
-2.94329
-2.99115
-3.04059
-3.09169
-3.14453
-3.1992
-3.25579
-3.31441
-3.37515
-3.43809
-3.50331
-3.57079
-3.64027
-3.71027
-1.91587
-1.93702
-1.9579
-1.97891
-2.00023
-2.02196
-2.04412
-2.06675
-2.08988
-2.11353
-2.13771
-2.16244
-2.18775
-2.21365
-2.24018
-2.26734
-2.29517
-2.3237
-2.35294
-2.38292
-2.41368
-2.44523
-2.47762
-2.51088
-2.54505
-2.58017
-2.61626
-2.65338
-2.69156
-2.73087
-2.77134
-2.81304
-2.856
-2.90029
-2.94597
-2.99312
-3.04179
-3.09207
-3.14403
-3.19777
-3.25337
-3.31092
-3.37054
-3.43231
-3.49633
-3.56267
-3.63143
-3.70284
-3.77829
-2.0002
-2.01991
-2.04084
-2.0625
-2.0847
-2.10739
-2.13055
-2.15419
-2.17834
-2.20301
-2.22824
-2.25403
-2.28042
-2.30743
-2.33508
-2.3634
-2.39242
-2.42215
-2.45263
-2.48388
-2.51594
-2.54883
-2.5826
-2.61727
-2.65289
-2.68949
-2.72711
-2.7658
-2.8056
-2.84657
-2.88876
-2.93222
-2.97701
-3.02317
-3.07079
-3.11993
-3.17067
-3.22308
-3.27725
-3.33327
-3.39123
-3.45124
-3.51341
-3.57785
-3.64466
-3.71393
-3.78561
-3.85927
-3.93281
-1.99453
-2.01778
-2.04036