/*--------------------------------*- C++ -*----------------------------------*\
  =========                 |
  \\      /  F ield         | OpenFOAM: The Open Source CFD Toolbox
   \\    /   O peration     | Website:  https://openfoam.org
    \\  /    A nd           | Version:  6
     \\/     M anipulation  |
\*---------------------------------------------------------------------------*/
FoamFile
{
    version     2.0;
    format      ascii;
    class       volScalarField;
    location    "120";
    object      gradTx;
}
// * * * * * * * * * * * * * * * * * * * * * * * * * * * * * * * * * * * * * //

dimensions      [0 -1 0 1 0 0 0];

internalField   nonuniform List<scalar> 
13524
(
2.09856
2.12097
2.14359
2.16657
2.18993
2.21372
2.238
2.26278
2.28811
2.314
2.34047
2.36755
2.39526
2.42361
2.45265
2.4824
2.51288
2.54411
2.57612
2.60895
2.64262
2.67716
2.71263
2.74904
2.78645
2.8249
2.86441
2.90505
2.94685
2.98989
3.03421
3.07986
3.1269
3.1754
3.22541
3.27703
3.33033
3.38539
3.44228
3.50113
3.56203
3.6251
3.69047
3.75828
3.82873
3.90204
3.97865
4.05944
4.14705
2.10585
2.12547
2.14661
2.16875
2.19163
2.21514
2.23925
2.26393
2.28919
2.31504
2.34149
2.36856
2.39626
2.42462
2.45366
2.48341
2.51389
2.54513
2.57716
2.61
2.64368
2.67824
2.71371
2.75014
2.78757
2.82603
2.86556
2.90622
2.94804
2.99109
3.03542
3.08108
3.12814
3.17666
3.2267
3.27834
3.33166
3.38673
3.44366
3.50252
3.56345
3.62654
3.69193
3.75977
3.8302
3.90341
3.97959
4.05868
4.13921
2.1755
2.19896
2.22215
2.24558
2.26943
2.29381
2.31875
2.34427
2.37039
2.39713
2.4245
2.4525
2.48116
2.51052
2.5406
2.5714
2.60295
2.63529
2.66845
2.70245
2.73733
2.77311
2.80984
2.84756
2.88631
2.92612
2.96705
3.00915
3.05247
3.09705
3.14295
3.19023
3.23895
3.28918
3.34099
3.39446
3.44967
3.50669
3.56563
3.62658
3.68965
3.75497
3.82265
3.89283
3.96566
4.04131
4.12001
4.20222
4.28973
2.20798
2.22892
2.25126
2.27452
2.29851
2.32313
2.34836
2.37419
2.40064
2.42771
2.45542
2.48378
2.5128
2.54253
2.57299
2.60418
2.63614
2.66889
2.70246
2.7369
2.77222
2.80846
2.84566
2.88386
2.92311
2.96344
3.00489
3.04751
3.09137
3.13651
3.183
3.23089
3.28025
3.33112
3.38359
3.43773
3.49364
3.55139
3.61107
3.6728
3.73666
3.80278
3.87129
3.9423
4.01594
4.09232
4.17147
4.25313
4.33562
2.24675
2.27125
2.29544
2.31981
2.34458
2.36984
2.39567
2.42208
2.4491
2.47673
2.50501
2.53396
2.56359
2.59393
2.62499
2.65681
2.68941
2.72283
2.75709
2.79223
2.82826
2.86522
2.90317
2.94214
2.98218
3.02333
3.06563
3.10912
3.15387
3.19992
3.24734
3.29619
3.34654
3.39844
3.45197
3.50721
3.56424
3.62316
3.68405
3.74701
3.81216
3.87961
3.94947
4.02187
4.09694
4.17478
4.25554
4.33962
4.42875
2.30225
2.32447
2.3481
2.37264
2.39788
2.42373
2.45019
2.47724
2.5049
2.5332
2.56215
2.59177
2.62209
2.65313
2.68491
2.71746
2.75081
2.78499
2.82004
2.85598
2.89284
2.93065
2.96947
3.00933
3.05028
3.09236
3.13561
3.1801
3.22588
3.27299
3.3215
3.37147
3.42296
3.47604
3.53079
3.58729
3.64563
3.70589
3.76817
3.83256
3.8992
3.96818
4.03963
4.11368
4.19044
4.26999
4.35234
4.43716
4.52261
2.31377
2.33947
2.36479
2.39024
2.41604
2.4423
2.46907
2.49642
2.52435
2.55291
2.58212
2.61199
2.64255
2.67384
2.70587
2.73869
2.77231
2.80676
2.84208
2.87829
2.91543
2.95355
2.99268
3.03286
3.07414
3.11655
3.16015
3.20498
3.2511
3.29858
3.34747
3.39783
3.44973
3.50323
3.55841
3.61535
3.67414
3.73487
3.79764
3.86254
3.9297
3.99923
4.07126
4.14592
4.22334
4.30367
4.38706
4.47389
4.56565
2.38719
2.41124
2.43637
2.46223
2.4887
2.51574
2.54334
2.57153
2.60032
2.62976
2.65987
2.69065
2.72214
2.75437
2.78738
2.82118
2.85582
2.89131
2.9277
2.96501
3.00328
3.04254
3.08283
3.12422
3.16674
3.21043
3.25535
3.30154
3.34906
3.39796
3.44832
3.5002
3.55366
3.60877
3.66561
3.72427
3.78483
3.8474
3.91206
3.97893
4.04812
4.11976
4.194
4.27096
4.35081
4.4337
4.51976
4.60893
4.7003
2.38435
2.41033
2.43632
2.46259
2.48925
2.51636
2.544
2.57221
2.60103
2.63048
2.66057
2.69136
2.72286
2.75511
2.78813
2.82194
2.85657
2.89207
2.92846
2.96578
3.00406
3.04334
3.08366
3.12506
3.16759
3.21129
3.25621
3.30241
3.34994
3.39886
3.44924
3.50113
3.55461
3.60973
3.66659
3.72526
3.78584
3.84843
3.91311
3.98
4.04922
4.1209
4.19518
4.27222
4.35219
4.43531
4.52184
4.61214
4.70666
2.45835
2.48491
2.51149
2.53838
2.5657
2.59354
2.62195
2.65097
2.68062
2.71095
2.74195
2.77366
2.80611
2.83934
2.87336
2.9082
2.9439
2.98048
3.01799
3.05645
3.09589
3.13636
3.17791
3.22058
3.26441
3.30945
3.35575
3.40336
3.45234
3.50276
3.55467
3.60815
3.66326
3.72007
3.77867
3.83914
3.90157
3.96607
4.03273
4.10167
4.17301
4.24689
4.32345
4.40286
4.48532
4.57106
4.66048
4.75435
4.855
2.4704
2.49396
2.51908
2.54525
2.57221
2.59988
2.62821
2.6572
2.68686
2.7172
2.74825
2.78002
2.81254
2.84583
2.87991
2.91482
2.95059
2.98726
3.02485
3.0634
3.10294
3.14351
3.18515
3.22791
3.27183
3.31698
3.36338
3.41111
3.4602
3.51073
3.56276
3.61636
3.6716
3.72854
3.78727
3.84788
3.91045
3.97509
4.04191
4.111
4.1825
4.25653
4.33326
4.41281
4.49538
4.58114
4.67024
4.76255
4.85645
2.51832
2.54547
2.57241
2.59963
2.62734
2.65563
2.68455
2.71414
2.74441
2.77538
2.80707
2.8395
2.8727
2.90669
2.94151
2.97717
3.0137
3.05115
3.08954
3.1289
3.16929
3.21072
3.25326
3.29694
3.34181
3.38792
3.43531
3.48405
3.5342
3.58581
3.63895
3.6937
3.75012
3.80828
3.86826
3.93016
3.99408
4.0601
4.12834
4.19891
4.27192
4.34752
4.42585
4.50706
4.5913
4.67877
4.76967
4.86449
4.96498
2.54583
2.57043
2.59644
2.62343
2.65119
2.67965
2.70878
2.73861
2.76914
2.80039
2.83236
2.86508
2.89857
2.93286
2.96798
3.00396
3.04083
3.07861
3.11735
3.15708
3.19782
3.23963
3.28254
3.32661
3.37189
3.41841
3.46624
3.51542
3.56602
3.61809
3.67172
3.72696
3.78388
3.84257
3.90309
3.96555
4.03004
4.09665
4.1655
4.2367
4.31036
4.38663
4.46563
4.54751
4.63241
4.72047
4.81176
4.90607
5.00185
2.57304
2.60086
2.62846
2.65634
2.68471
2.71366
2.74323
2.77347
2.8044
2.83605
2.86843
2.90158
2.93551
2.97024
3.00582
3.04226
3.07959
3.11785
3.15708
3.19732
3.23859
3.28093
3.3244
3.36903
3.41488
3.462
3.51044
3.56024
3.61149
3.66423
3.71854
3.77448
3.83213
3.89156
3.95286
4.01612
4.08143
4.1489
4.21862
4.29072
4.36532
4.44255
4.52254
4.60543
4.69138
4.78052
4.87306
4.96942
5.07132
2.61283
2.63838
2.6653
2.69315
2.72176
2.75107
2.78106
2.81175
2.84314
2.87525
2.90809
2.9417
2.97611
3.01133
3.04741
3.08436
3.12222
3.16102
3.2008
3.24159
3.28343
3.32636
3.37042
3.41568
3.46217
3.50994
3.55905
3.60954
3.6615
3.71497
3.77003
3.82675
3.8852
3.94546
4.00761
4.07174
4.13796
4.20636
4.27706
4.35016
4.42579
4.50409
4.58519
4.66923
4.75635
4.84668
4.94028
5.03698
5.13534
2.62371
2.65211
2.68039
2.70896
2.73803
2.76766
2.79792
2.82884
2.86047
2.89281
2.92589
2.95974
2.99437
3.02982
3.06613
3.10331
3.1414
3.18045
3.22048
3.26153
3.30362
3.34682
3.39115
3.43669
3.48346
3.53153
3.58094
3.63175
3.68402
3.73782
3.79322
3.8503
3.90911
3.96973
4.03227
4.0968
4.16343
4.23225
4.30339
4.37694
4.45305
4.53184
4.61346
4.69806
4.78577
4.87676
4.97123
5.06955
5.17327
2.67166
2.69819
2.72602
2.75476
2.78423
2.81439
2.84521
2.8767
2.90889
2.94181
2.97547
3.00991
3.04514
3.08121
3.11814
3.15597
3.19471
3.23442
3.27513
3.31688
3.3597
3.40363
3.44872
3.49503
3.5426
3.59148
3.64173
3.6934
3.74656
3.80128
3.85762
3.91566
3.97547
4.03713
4.10073
4.16636
4.23412
4.30412
4.37647
4.45128
4.5287
4.60885
4.6919
4.77798
4.86727
4.95991
5.05602
5.15542
5.25669
2.66995
2.69918
2.7283
2.75768
2.78749
2.81784
2.84878
2.88038
2.91266
2.94565
2.97937
3.01387
3.04916
3.08528
3.12227
3.16014
3.19895
3.23872
3.27949
3.32129
3.36416
3.40815
3.45331
3.49968
3.54732
3.59627
3.64658
3.69832
3.75156
3.80635
3.86277
3.92089
3.98078
4.04252
4.1062
4.17192
4.23978
4.30988
4.38233
4.45725
4.53479
4.61508
4.69827
4.78454
4.87407
4.96706
5.06381
5.16478
5.27125
2.72013
2.74873
2.77788
2.80758
2.83785
2.8687
2.90019
2.93234
2.9652
2.99879
3.03313
3.06824
3.10418
3.14096
3.17861
3.21717
3.25668
3.29716
3.33867
3.38123
3.42488
3.46967
3.51564
3.56284
3.61134
3.66118
3.7124
3.76508
3.81927
3.87506
3.9325
3.99167
4.05264
4.1155
4.18033
4.24724
4.31632
4.38769
4.46146
4.53775
4.6167
4.69845
4.78318
4.87106
4.96227
5.05707
5.15574
5.25871
5.36673
2.7222
2.75
2.7787
2.80814
2.83826
2.86903
2.90047
2.93259
2.96543
2.999
3.03332
3.06844
3.10436
3.14114
3.1788
3.21736
3.25687
3.29735
3.33886
3.38142
3.42508
3.46986
3.51584
3.56305
3.61155
3.66139
3.71262
3.7653
3.81949
3.87528
3.93273
3.9919
4.05288
4.11575
4.18059
4.2475
4.31659
4.38797
4.46174
4.53804
4.61699
4.69877
4.78351
4.8714
4.96264
5.05743
5.15601
5.25852
5.36455
2.76115
2.79067
2.8203
2.85034
2.88092
2.91213
2.944
2.97657
3.00987
3.04391
3.07874
3.11436
3.15082
3.18814
3.22635
3.26548
3.30558
3.34667
3.3888
3.43199
3.4763
3.52175
3.56841
3.61633
3.66555
3.71614
3.76814
3.8216
3.87661
3.93323
3.99154
4.0516
4.11349
4.1773
4.24311
4.31103
4.38115
4.45359
4.52847
4.60591
4.68605
4.76904
4.85505
4.94424
5.03681
5.13298
5.23302
5.33742
5.4476
2.77002
2.79754
2.82628
2.85594
2.88636
2.9175
2.94934
2.98192
3.01524
3.04932
3.08419
3.11986
3.15637
3.19374
3.23202
3.27121
3.31137
3.35253
3.39473
3.438
3.48238
3.52791
3.57465
3.62265
3.67197
3.72264
3.77473
3.82829
3.88339
3.94011
3.99852
4.05869
4.12069
4.18461
4.25053
4.31857
4.38881
4.46138
4.53639
4.61396
4.69423
4.77736
4.86349
4.9528
5.04546
5.14166
5.24154
5.34506
5.45123
2.79672
2.82642
2.85626
2.88654
2.9174
2.94891
2.9811
3.01401
3.04767
3.08211
3.11734
3.15338
3.19027
3.22803
3.26671
3.30632
3.34691
3.38851
3.43115
3.47489
3.51974
3.56576
3.613
3.66152
3.71136
3.76257
3.81522
3.86936
3.92505
3.98238
4.04141
4.10223
4.16489
4.22949
4.29613
4.36489
4.43589
4.50923
4.58504
4.66344
4.74456
4.82856
4.91559
5.00583
5.09943
5.1966
5.29754
5.40264
5.51307
2.80888
2.83707
2.86633
2.89642
2.92726
2.95882
2.9911
3.0241
3.05786
3.0924
3.12774
3.16389
3.2009
3.23879
3.27758
3.31733
3.35804
3.39977
3.44256
3.48644
3.53144
3.57761
3.62501
3.67368
3.72369
3.77507
3.8279
3.88221
3.93809
3.99561
4.05484
4.11585
4.17873
4.24354
4.3104
4.37939
4.45062
4.5242
4.60026
4.67891
4.76029
4.84456
4.93186
5.02235
5.11622
5.21362
5.31471
5.41948
5.52724
2.82707
2.85697
2.8871
2.91771
2.9489
2.98074
3.01327
3.04653
3.08055
3.11534
3.15093
3.18735
3.22463
3.2628
3.30188
3.34191
3.38293
3.42497
3.46807
3.51227
3.55761
3.60412
3.65187
3.7009
3.75128
3.80304
3.85625
3.91097
3.96727
4.02521
4.08488
4.14634
4.20968
4.27498
4.34233
4.41183
4.48358
4.55771
4.63433
4.71355
4.79553
4.88041
4.96834
5.05949
5.15403
5.25214
5.35406
5.46012
5.57134
2.84025
2.86901
2.89874
2.92925
2.96049
2.99243
3.02508
3.05847
3.09262
3.12755
3.16328
3.19985
3.23727
3.27558
3.31482
3.35501
3.39619
3.43839
3.48166
3.52603
3.57154
3.61824
3.66617
3.7154
3.76597
3.81794
3.87136
3.92629
3.9828
4.04097
4.10088
4.16258
4.22617
4.29172
4.35933
4.4291
4.50114
4.57555
4.65247
4.732
4.81429
4.89949
4.98776
5.07926
5.17415
5.27263
5.37485
5.4809
5.59032
2.85253
2.88255
2.91291
2.94378
2.97526
3.00741
3.04025
3.07382
3.10815
3.14326
3.17918
3.21593
3.25354
3.29205
3.33149
3.37188
3.41326
3.45568
3.49917
3.54376
3.5895
3.63643
3.68461
3.73408
3.7849
3.83713
3.89082
3.94603
4.00283
4.06129
4.12149
4.18351
4.24741
4.31329
4.38124
4.45137
4.52376
4.59855
4.67585
4.75578
4.83848
4.92411
5.01283
5.10478
5.20016
5.29916
5.40199
5.50899
5.62096
2.8646
2.89387
2.92399
2.95484
2.98639
3.01865
3.05161
3.08531
3.11978
3.15502
3.19108
3.22797
3.26573
3.30438
3.34397
3.38451
3.42606
3.46863
3.51228
3.55705
3.60296
3.65006
3.69842
3.74808
3.79909
3.85152
3.90541
3.96082
4.01783
4.07652
4.13694
4.19919
4.26334
4.32946
4.39767
4.46805
4.54072
4.61579
4.69338
4.77361
4.85662
4.94258
5.03162
5.12393
5.21968
5.31906
5.42224
5.52938
5.64028
2.87293
2.90297
2.93347
2.96456
2.99628
3.02868
3.06177
3.09559
3.13018
3.16555
3.20174
3.23876
3.27665
3.31543
3.35515
3.39584
3.43752
3.48024
3.52404
3.56895
3.61502
3.66229
3.7108
3.76063
3.81181
3.86442
3.91849
3.97409
4.03129
4.09017
4.1508
4.21325
4.27761
4.34396
4.41239
4.48301
4.55593
4.63125
4.7091
4.7896
4.8729
4.95914
5.0485
5.14113
5.23721
5.33696
5.44057
5.54834
5.66085
2.88231
2.912
2.94242
2.97354
3.00533
3.03781
3.07101
3.10494
3.13964
3.17513
3.21142
3.24856
3.28657
3.32548
3.36532
3.40613
3.44794
3.49079
3.53473
3.57978
3.62599
3.6734
3.72206
3.77204
3.82338
3.87615
3.93038
3.98615
4.04353
4.10258
4.1634
4.22604
4.2906
4.35715
4.42579
4.49663
4.56976
4.64531
4.7234
4.80415
4.88771
4.97422
5.06386
5.15678
5.25318
5.35324
5.45717
5.56516
5.67727
2.88796
2.91797
2.94856
2.97979
3.01168
3.04424
3.07752
3.11153
3.14631
3.18188
3.21826
3.25548
3.29358
3.33257
3.3725
3.4134
3.45531
3.49825
3.54228
3.58743
3.63374
3.68125
3.73002
3.78011
3.83156
3.88444
3.93879
3.99468
4.05218
4.11136
4.17231
4.23509
4.29978
4.36647
4.43526
4.50625
4.57955
4.65526
4.73352
4.81445
4.89819
4.9849
5.07474
5.16788
5.2645
5.36481
5.46901
5.57735
5.69014
2.89366
2.92371
2.95436
2.98565
3.01761
3.05024
3.0836
3.11769
3.15254
3.18819
3.22464
3.26194
3.30012
3.33919
3.37921
3.42019
3.46218
3.50521
3.54933
3.59457
3.64097
3.68858
3.73745
3.78763
3.83919
3.89217
3.94663
4.00263
4.06025
4.11955
4.18062
4.24353
4.30835
4.37517
4.4441
4.51523
4.58868
4.66455
4.74296
4.82406
4.90797
4.99486
5.08489
5.17823
5.27507
5.3756
5.48004
5.58863
5.70168
2.89729
2.92719
2.9578
2.98911
3.0211
3.05379
3.08719
3.12132
3.15622
3.19191
3.22842
3.26577
3.30399
3.34311
3.38317
3.42421
3.46624
3.50933
3.5535
3.5988
3.64525
3.69292
3.74184
3.79209
3.84371
3.89675
3.95128
4.00734
4.06503
4.1244
4.18554
4.24852
4.31342
4.38033
4.44934
4.52055
4.59408
4.67005
4.74856
4.82975
4.91377
5.00077
5.09091
5.18438
5.28135
5.38202
5.48661
5.59531
5.70818
2.89879
2.92918
2.96003
2.99147
3.02353
3.05627
3.08971
3.12388
3.15881
3.19454
3.23108
3.26846
3.30672
3.34588
3.38597
3.42704
3.46911
3.51224
3.55644
3.60178
3.64827
3.69598
3.74495
3.79523
3.84689
3.89998
3.95455
4.01067
4.0684
4.12782
4.18901
4.25204
4.317
4.38396
4.45303
4.52431
4.5979
4.67393
4.7525
4.83377
4.91786
5.00493
5.09516
5.18871
5.28578
5.38657
5.49131
5.60033
5.71423
2.90048
2.9303
2.96092
2.99227
3.0243
3.05703
3.09047
3.12464
3.15959
3.19532
3.23187
3.26926
3.30753
3.3467
3.38681
3.42789
3.46997
3.5131
3.55732
3.60267
3.64917
3.69689
3.74587
3.79617
3.84784
3.90094
3.95553
4.01166
4.0694
4.12884
4.19004
4.25309
4.31807
4.38505
4.45413
4.52543
4.59904
4.67508
4.75368
4.83497
4.91908
5.00618
5.09643
5.19001
5.2871
5.38791
5.49265
5.60148
5.71436
2.89878
2.92918
2.96004
2.99148
3.02354
3.05627
3.08971
3.12388
3.15882
3.19454
3.23108
3.26846
3.30671
3.34588
3.38597
3.42704
3.46912
3.51224
3.55645
3.60178
3.64827
3.69598
3.74495
3.79523
3.84689
3.89998
3.95455
4.01066
4.06839
4.12782
4.18901
4.25204
4.317
4.38396
4.45303
4.52431
4.5979
4.67393
4.75251
4.83377
4.91786
5.00494
5.09516
5.18871
5.28578
5.38657
5.49131
5.60033
5.71423
2.89728
2.92719
2.95781
2.98912
3.0211
3.05379
3.08718
3.12132
3.15622
3.19191
3.22842
3.26577
3.30399
3.34311
3.38318
3.42421
3.46625
3.50933
3.5535
3.5988
3.64525
3.69292
3.74184
3.79209
3.84371
3.89675
3.95127
4.00734
4.06502
4.1244
4.18554
4.24852
4.31342
4.38033
4.44934
4.52055
4.59409
4.67005
4.74856
4.82975
4.91377
5.00077
5.09091
5.18438
5.28135
5.38202
5.48661
5.59531
5.70818
2.89367
2.92371
2.95436
2.98565
3.0176
3.05025
3.0836
3.11769
3.15254
3.18819
3.22465
3.26195
3.30012
3.3392
3.37921
3.42019
3.46218
3.50521
3.54933
3.59457
3.64097
3.68858
3.73745
3.78763
3.83919
3.89217
3.94663
4.00263
4.06024
4.11955
4.18061
4.24352
4.30835
4.37517
4.4441
4.51523
4.58868
4.66455
4.74296
4.82406
4.90797
4.99486
5.08489
5.17823
5.27507
5.3756
5.48004
5.58863
5.70168
2.88798
2.91797
2.94856
2.97979
3.01167
3.04425
3.07752
3.11154
3.14631
3.18188
3.21826
3.25549
3.29358
3.33257
3.37251
3.4134
3.45531
3.49825
3.54228
3.58743
3.63374
3.68125
3.73002
3.7801
3.83156
3.88443
3.93878
3.99467
4.05217
4.11136
4.1723
4.23509
4.29978
4.36647
4.43526
4.50625
4.57955
4.65526
4.73352
4.81445
4.89819
4.9849
5.07474
5.16788
5.2645
5.36481
5.46901
5.57735
5.69014
2.88231
2.912
2.94242
2.97354
3.00533
3.03782
3.07101
3.10494
3.13964
3.17513
3.21143
3.24856
3.28657
3.32548
3.36532
3.40613
3.44794
3.49079
3.53473
3.57978
3.62598
3.67339
3.72206
3.77204
3.82338
3.87614
3.93038
3.98615
4.04352
4.10258
4.1634
4.22604
4.2906
4.35715
4.42579
4.49663
4.56976
4.64531
4.7234
4.80415
4.88771
4.97422
5.06386
5.15678
5.25318
5.35324
5.45717
5.56516
5.67727
2.87292
2.90297
2.93348
2.96457
2.99629
3.02867
3.06177
3.09559
3.13018
3.16555
3.20174
3.23876
3.27664
3.31543
3.35515
3.39584
3.43752
3.48024
3.52404
3.56895
3.61502
3.66228
3.7108
3.76063
3.81181
3.86442
3.91849
3.97409
4.03129
4.09017
4.1508
4.21325
4.27761
4.34396
4.4124
4.48302
4.55593
4.63125
4.7091
4.7896
4.8729
4.95914
5.0485
5.14113
5.23721
5.33696
5.44057
5.54834
5.66085
2.8646
2.89387
2.92399
2.95484
2.98639
3.01864
3.05161
3.08531
3.11977
3.15502
3.19108
3.22797
3.26573
3.30438
3.34397
3.38451
3.42605
3.46863
3.51228
3.55705
3.60296
3.65007
3.69842
3.74808
3.7991
3.85152
3.90541
3.96083
4.01784
4.07652
4.13695
4.19919
4.26334
4.32946
4.39767
4.46805
4.54072
4.61579
4.69338
4.77361
4.85662
4.94258
5.03162
5.12393
5.21968
5.31906
5.42224
5.52938
5.64028
2.85254
2.88255
2.9129
2.94377
2.97526
3.00741
3.04025
3.07382
3.10815
3.14326
3.17918
3.21593
3.25354
3.29205
3.33149
3.37188
3.41326
3.45568
3.49917
3.54376
3.5895
3.63644
3.68461
3.73408
3.78491
3.83714
3.89083
3.94603
4.00283
4.06129
4.1215
4.18351
4.24742
4.3133
4.38125
4.45137
4.52377
4.59855
4.67585
4.75578
4.83849
4.92411
5.01283
5.10478
5.20016
5.29916
5.40199
5.50899
5.62096
2.84025
2.86901
2.89873
2.92925
2.96049
2.99243
3.02508
3.05847
3.09262
3.12755
3.16328
3.19985
3.23727
3.27558
3.31482
3.35501
3.39619
3.43839
3.48166
3.52604
3.57155
3.61824
3.66618
3.7154
3.76597
3.81794
3.87136
3.92629
3.98281
4.04098
4.10088
4.16259
4.22617
4.29172
4.35933
4.4291
4.50114
4.57555
4.65247
4.732
4.81429
4.89949
4.98776
5.07926
5.17415
5.27263
5.37485
5.48089
5.59032
2.82707
2.85697
2.8871
2.91771
2.9489
2.98074
3.01327
3.04653
3.08055
3.11534
3.15094
3.18736
3.22463
3.2628
3.30188
3.34192
3.38293
3.42498
3.46808
3.51228
3.55761
3.60413
3.65187
3.70091
3.75128
3.80305
3.85626
3.91098
3.96727
4.02521
4.08488
4.14635
4.20968
4.27498
4.34233
4.41183
4.48358
4.55771
4.63433
4.71355
4.79553
4.8804
4.96834
5.05949
5.15402
5.25214
5.35405
5.46012
5.57134
2.80888
2.83706
2.86633
2.89643
2.92727
2.95882
2.9911
3.02411
3.05787
3.09241
3.12774
3.16389
3.2009
3.23879
3.27759
3.31733
3.35805
3.39978
3.44257
3.48644
3.53144
3.57762
3.62501
3.67369
3.72369
3.77508
3.8279
3.88221
3.93809
3.99561
4.05484
4.11585
4.17873
4.24354
4.3104
4.37939
4.45062
4.5242
4.60026
4.67891
4.76029
4.84455
4.93185
5.02235
5.11622
5.21362
5.3147
5.41948
5.52724
2.79671
2.82642
2.85627
2.88655
2.9174
2.94891
2.9811
3.01402
3.04768
3.08211
3.11734
3.15338
3.19027
3.22804
3.26672
3.30633
3.34691
3.38851
3.43116
3.47489
3.51975
3.56577
3.61301
3.66152
3.71136
3.76258
3.81522
3.86936
3.92505
3.98238
4.04141
4.10223
4.16489
4.22949
4.29613
4.36489
4.43589
4.50923
4.58504
4.66344
4.74456
4.82856
4.91559
5.00582
5.09943
5.19659
5.29754
5.40264
5.51307
2.77004
2.79755
2.82629
2.85593
2.88635
2.91749
2.94935
2.98193
3.01524
3.04933
3.08419
3.11987
3.15637
3.19375
3.23202
3.27122
3.31137
3.35253
3.39473
3.438
3.48238
3.52792
3.57466
3.62265
3.67196
3.72264
3.77473
3.82829
3.88339
3.94011
3.99852
4.05868
4.12068
4.1846
4.25053
4.31856
4.38881
4.46138
4.53638
4.61396
4.69423
4.77735
4.86349
4.9528
5.04546
5.14166
5.24154
5.34505
5.45122
2.76116
2.79067
2.82029
2.85033
2.88093
2.91214
2.94401
2.97657
3.00987
3.04392
3.07874
3.11437
3.15082
3.18814
3.22635
3.26549
3.30558
3.34667
3.3888
3.43199
3.4763
3.52175
3.56841
3.61633
3.66555
3.71614
3.76813
3.8216
3.87661
3.93323
3.99154
4.0516
4.11349
4.17729
4.2431
4.31102
4.38114
4.45359
4.52847
4.60591
4.68604
4.76904
4.85504
4.94423
5.0368
5.13297
5.23302
5.33742
5.44759
2.72219
2.75
2.7787
2.80815
2.83827
2.86904
2.90047
2.93259
2.96543
2.999
3.03333
3.06844
3.10436
3.14114
3.1788
3.21736
3.25687
3.29735
3.33886
3.38142
3.42507
3.46986
3.51583
3.56304
3.61154
3.66138
3.71261
3.76529
3.81949
3.87527
3.93272
3.9919
4.05287
4.11574
4.18058
4.24749
4.31658
4.38796
4.46173
4.53803
4.61699
4.69876
4.78351
4.8714
4.96264
5.05743
5.15601
5.25851
5.36455
2.72013
2.74874
2.77789
2.80758
2.83784
2.8687
2.90019
2.93235
2.96521
2.99879
3.03313
3.06824
3.10417
3.14095
3.17861
3.21717
3.25668
3.29716
3.33867
3.38123
3.42487
3.46966
3.51563
3.56284
3.61133
3.66117
3.7124
3.76507
3.81927
3.87505
3.93249
3.99166
4.05263
4.11549
4.18033
4.24724
4.31632
4.38769
4.46146
4.53775
4.61669
4.69845
4.78318
4.87105
4.96227
5.05707
5.15574
5.25871
5.36673
2.66995
2.69918
2.7283
2.75768
2.78749
2.81784
2.84879
2.88038
2.91266
2.94564
2.97937
3.01386
3.04916
3.08528
3.12227
3.16014
3.19894
3.23871
3.27948
3.32128
3.36416
3.40815
3.4533
3.49967
3.54731
3.59626
3.64658
3.69832
3.75155
3.80634
3.86277
3.92089
3.98078
4.04252
4.1062
4.17192
4.23978
4.30988
4.38233
4.45726
4.53479
4.61508
4.69827
4.78454
4.87407
4.96707
5.06381
5.16479
5.27125
2.67166
2.69819
2.72602
2.75476
2.78423
2.81439
2.8452
2.8767
2.90889
2.94181
2.97547
3.00991
3.04514
3.08121
3.11814
3.15596
3.19471
3.23442
3.27513
3.31688
3.3597
3.40363
3.44872
3.49503
3.5426
3.59148
3.64173
3.6934
3.74656
3.80128
3.85763
3.91567
3.97548
4.03714
4.10074
4.16636
4.23413
4.30413
4.37647
4.45129
4.5287
4.60886
4.6919
4.77798
4.86727
4.95992
5.05602
5.15542
5.25669
2.62372
2.65211
2.68038
2.70896
2.73802
2.76766
2.79793
2.82885
2.86048
2.89282
2.92589
2.95974
2.99437
3.02983
3.06613
3.10331
3.14141
3.18045
3.22048
3.26153
3.30363
3.34682
3.39116
3.4367
3.48347
3.53154
3.58095
3.63176
3.68403
3.73783
3.79324
3.85031
3.90912
3.96975
4.03228
4.09681
4.16344
4.23226
4.3034
4.37695
4.45306
4.53185
4.61347
4.69806
4.78577
4.87677
4.97123
5.06955
5.17327
2.61283
2.63838
2.6653
2.69315
2.72177
2.75108
2.78107
2.81175
2.84314
2.87525
2.9081
2.94171
2.97612
3.01135
3.04742
3.08437
3.12223
3.16103
3.20081
3.2416
3.28344
3.32637
3.37044
3.41569
3.46218
3.50995
3.55906
3.60956
3.66151
3.71498
3.77005
3.82677
3.88522
3.94547
4.00762
4.07176
4.13797
4.20637
4.27707
4.35016
4.42579
4.50409
4.58519
4.66923
4.75635
4.84668
4.94028
5.03698
5.13534
2.57305
2.60086
2.62847
2.65635
2.68472
2.71366
2.74323
2.77347
2.80441
2.83606
2.86844
2.90158
2.93551
2.97025
3.00582
3.04226
3.0796
3.11787
3.1571
3.19733
3.2386
3.28094
3.3244
3.36904
3.41489
3.46201
3.51045
3.56025
3.61149
3.66424
3.71855
3.77449
3.83214
3.89157
3.95287
4.01613
4.08144
4.1489
4.21863
4.29072
4.36532
4.44254
4.52253
4.60543
4.69137
4.78052
4.87305
4.96942
5.07132
2.54583
2.57043
2.59645
2.62343
2.65119
2.67965
2.70879
2.73862
2.76915
2.80039
2.83236
2.86508
2.89857
2.93287
2.96799
3.00397
3.04084
3.07862
3.11736
3.15708
3.19783
3.23964
3.28255
3.32662
3.3719
3.41842
3.46625
3.51543
3.56602
3.6181
3.67172
3.72696
3.78389
3.84257
3.9031
3.96556
4.03004
4.09666
4.1655
4.2367
4.31036
4.38662
4.46562
4.5475
4.63241
4.72047
4.81176
4.90606
5.00184
2.51833
2.54548
2.57242
2.59963
2.62734
2.65564
2.68456
2.71414
2.74441
2.77538
2.80707
2.83951
2.87271
2.9067
2.94151
2.97717
3.0137
3.05115
3.08954
3.12891
3.1693
3.21073
3.25326
3.29694
3.34181
3.38792
3.43531
3.48405
3.5342
3.58581
3.63896
3.6937
3.75012
3.80828
3.86826
3.93016
3.99407
4.0601
4.12833
4.1989
4.27191
4.34751
4.42584
4.50705
4.59129
4.67875
4.76966
4.86448
4.96497
2.47041
2.49397
2.51909
2.54525
2.57222
2.59988
2.62821
2.6572
2.68686
2.71721
2.74826
2.78002
2.81254
2.84583
2.87992
2.91483
2.9506
2.98727
3.02486
3.06341
3.10294
3.14351
3.18515
3.22791
3.27184
3.31698
3.36339
3.41111
3.4602
3.51073
3.56276
3.61636
3.6716
3.72854
3.78727
3.84787
3.91045
3.97509
4.0419
4.11099
4.18249
4.25652
4.33324
4.4128
4.49537
4.58114
4.67023
4.76254
4.85644
2.45835
2.4849
2.51149
2.53838
2.5657
2.59355
2.62196
2.65097
2.68063
2.71095
2.74195
2.77367
2.80612
2.83934
2.87336
2.9082
2.94389
2.98048
3.01799
3.05645
3.09589
3.13637
3.17791
3.22058
3.26441
3.30945
3.35575
3.40335
3.45233
3.50275
3.55467
3.60814
3.66325
3.72006
3.77866
3.83913
3.90156
3.96605
4.03271
4.10165
4.17299
4.24687
4.32343
4.40285
4.4853
4.57105
4.66047
4.75434
4.85499
2.38435
2.41033
2.43633
2.4626
2.48925
2.51637
2.54401
2.57221
2.60103
2.63047
2.66058
2.69136
2.72286
2.75511
2.78812
2.82193
2.85657
2.89207
2.92846
2.96578
3.00406
3.04333
3.08365
3.12505
3.16758
3.21128
3.25621
3.3024
3.34993
3.39885
3.44922
3.50112
3.55459
3.60971
3.66657
3.72524
3.78582
3.84841
3.91309
3.97998
4.0492
4.12088
4.19517
4.27221
4.35219
4.4353
4.52183
4.61213
4.70666
2.3872
2.41124
2.43636
2.46223
2.4887
2.51574
2.54334
2.57153
2.60033
2.62977
2.65987
2.69065
2.72214
2.75438
2.78738
2.82118
2.85581
2.8913
2.92769
2.965
3.00326
3.04253
3.08283
3.12422
3.16673
3.21043
3.25534
3.30152
3.34904
3.39794
3.4483
3.50018
3.55364
3.60875
3.66559
3.72425
3.78481
3.84738
3.91204
3.97891
4.0481
4.11975
4.19399
4.27096
4.35081
4.4337
4.51975
4.60893
4.7003
2.31377
2.33947
2.3648
2.39025
2.41605
2.4423
2.46908
2.49642
2.52436
2.55292
2.58212
2.61199
2.64256
2.67384
2.70588
2.73869
2.77231
2.80676
2.84208
2.87829
2.91544
2.95355
2.99268
3.03286
3.07413
3.11655
3.16014
3.20498
3.2511
3.29858
3.34746
3.39782
3.44972
3.50322
3.5584
3.61534
3.67413
3.73486
3.79763
3.86254
3.9297
3.99924
4.07127
4.14593
4.22335
4.30367
4.38706
4.47389
4.56565
2.30225
2.32448
2.3481
2.37264
2.39788
2.42373
2.45018
2.47724
2.5049
2.53321
2.56216
2.59178
2.62209
2.65313
2.68491
2.71746
2.75081
2.785
2.82004
2.85598
2.89283
2.93065
2.96947
3.00934
3.05029
3.09237
3.13563
3.18012
3.22588
3.27299
3.3215
3.37147
3.42296
3.47605
3.5308
3.5873
3.64563
3.70589
3.76818
3.83258
3.89921
3.9682
4.03966
4.1137
4.19045
4.27
4.35235
4.43716
4.52261
2.24675
2.27125
2.29543
2.3198
2.34458
2.36985
2.39568
2.42209
2.4491
2.47674
2.50503
2.53397
2.5636
2.59393
2.625
2.65682
2.68942
2.72284
2.7571
2.79223
2.82826
2.86524
2.90319
2.94216
2.9822
3.02335
3.06564
3.10914
3.15388
3.19994
3.24736
3.29622
3.34656
3.39846
3.45199
3.50723
3.56426
3.62318
3.68407
3.74703
3.81218
3.87963
3.9495
4.0219
4.09695
4.17479
4.25555
4.33962
4.42875
2.20797
2.22892
2.25127
2.27453
2.29852
2.32314
2.34837
2.3742
2.40065
2.42772
2.45543
2.48379
2.51282
2.54255
2.573
2.60419
2.63615
2.6689
2.70248
2.73692
2.77224
2.80848
2.84568
2.88388
2.92313
2.96346
3.00491
3.04754
3.0914
3.13654
3.18303
3.23092
3.28026
3.33113
3.3836
3.43775
3.49365
3.5514
3.61109
3.67282
3.73668
3.80281
3.87132
3.94232
4.01596
4.09233
4.17147
4.25313
4.3356
2.17551
2.19896
2.22215
2.24558
2.26944
2.29382
2.31876
2.34428
2.3704
2.39714
2.42451
2.45251
2.48118
2.51054
2.54061
2.5714
2.60296
2.6353
2.66846
2.70246
2.73734
2.77312
2.80985
2.84758
2.88633
2.92615
2.96709
3.00918
3.05249
3.09706
3.14296
3.19025
3.23897
3.2892
3.34101
3.39448
3.44968
3.5067
3.56564
3.6266
3.68967
3.75499
3.82267
3.89284
3.96567
4.04132
4.12001
4.20221
4.28971
2.10585
2.12547
2.14661
2.16875
2.19163
2.21515
2.23926
2.26394
2.2892
2.31505
2.3415
2.36856
2.39626
2.42463
2.45367
2.48342
2.51389
2.54513
2.57716
2.61
2.64368
2.67824
2.71372
2.75015
2.78758
2.82604
2.86557
2.90622
2.94805
2.9911
3.03543
3.0811
3.12815
3.17667
3.2267
3.27834
3.33165
3.38673
3.44366
3.50253
3.56345
3.62655
3.69194
3.75977
3.8302
3.90341
3.97958
4.05866
4.13918
2.09856
2.12097
2.1436
2.16657
2.18992
2.21372
2.238
2.26279
2.28812
2.31401
2.34048
2.36756
2.39527
2.42363
2.45267
2.48241
2.51288
2.5441
2.57612
2.60895
2.64262
2.67717
2.71263
2.74904
2.78646
2.8249
2.86442
2.90506
2.94687
2.9899
3.03421
3.07986
3.1269
3.17539
3.22541
3.27702
3.33032
3.38537
3.44228
3.50113
3.56203
3.6251
3.69047
3.75829
3.82873
3.90204
3.97863
4.05942
4.14701
1.99452
2.01778
2.04036
2.0628
2.08536
2.10821
2.13146
2.15514
2.17932
2.20401
2.22925
2.25507
2.28146
2.30848
2.33615
2.36449
2.39352
2.42327
2.45377
2.48503
2.5171
2.55
2.58379
2.61848
2.65411
2.69072
2.72836
2.76706
2.80689
2.84789
2.8901
2.93359
2.97839
3.02458
3.07223
3.1214
3.17216
3.22459
3.27878
3.33483
3.39283
3.45289
3.51513
3.57968
3.64668
3.71631
3.78879
3.86449
3.94415
2.00019
2.01991
2.04085
2.06249
2.0847
2.10739
2.13054
2.15418
2.17832
2.20301
2.22824
2.25403
2.28041
2.30742
2.33508
2.36342
2.39243
2.42216
2.45263
2.48389
2.51595
2.54884
2.58261
2.61728
2.65289
2.68949
2.72711
2.76581
2.80562
2.8466
2.88879
2.93224
2.97703
3.0232
3.07083
3.11997
3.1707
3.22311
3.27727
3.33329
3.39125
3.45126
3.51343
3.57787
3.64469
3.71395
3.78564
3.8593
3.93283
1.91587
1.93703
1.9579
1.9789
2.00024
2.02196
2.04411
2.06675
2.08989
2.11354
2.13772
2.16244
2.18775
2.21366
2.2402
2.26737
2.29519
2.32371
2.35295
2.38294
2.4137
2.44526
2.47764
2.5109
2.54507
2.58018
2.61628
2.6534
2.69159
2.7309
2.77137
2.81307
2.85604
2.90033
2.94601
2.99315
3.04182
3.0921
3.14406
3.1978
3.25339
3.31094
3.37056
3.43233
3.49635
3.5627
3.63146
3.70287
3.77831
1.88942
1.90752
1.9268
1.94685
1.9675
1.98867
2.01035
2.03253
2.05522
2.07843
2.10218
2.12648
2.15136
2.17683
2.20291
2.22961
2.25698
2.28502
2.31378
2.34327
2.37351
2.40454
2.43638
2.46909
2.50269
2.53723
2.57272
2.60922
2.64677
2.68543
2.72523
2.76623
2.80848
2.85204
2.89696
2.94332
2.99118
3.04062
3.09172
3.14455
3.19922
3.25581
3.31443
3.37516
3.43811
3.50332
3.57081
3.64029
3.71029
1.83272
1.85257
1.87219
1.89199
1.91213
1.9327
1.95373
1.97524
1.99726
2.01979
2.04285
2.06645
2.09062
2.11536
2.14069
2.16663
2.19322
2.22048
2.24842
2.27707
2.30645
2.3366
2.36755
2.39934
2.43199
2.46554
2.50003
2.5355
2.57199
2.60956
2.64823
2.68807
2.72913
2.77145
2.81511
2.86015
2.90667
2.95471
3.00436
3.05571
3.10884
3.16385
3.22083
3.27988
3.34112
3.40465
3.47062
3.5394
3.61248
1.77245
1.78916
1.80701
1.82562
1.84483
1.86456
1.88479
1.90551
1.92672
1.94845
1.97069
1.99345
2.01675
2.0406
2.06503
2.09006
2.11571
2.142
2.16895
2.19658
2.22492
2.25401
2.28386
2.31453
2.34602
2.37839
2.41166
2.44587
2.48108
2.51731
2.55462
2.59305
2.63266
2.67348
2.71559
2.75905
2.80392
2.85026
2.89817
2.94771
2.99897
3.05205
3.10705
3.16408
3.22324
3.28466
3.34843
3.41441
3.48139
1.74501
1.76357
1.78209
1.80085
1.81999
1.83955
1.85956
1.88003
1.90098
1.92242
1.94437
1.96683
1.98982
2.01336
2.03747
2.06217
2.08748
2.11341
2.13999
2.16726
2.19523
2.22393
2.25338
2.28363
2.3147
2.34664
2.37947
2.41323
2.44796
2.48371
2.52052
2.55844
2.59751
2.6378
2.67935
2.72222
2.76649
2.81223
2.8595