/*--------------------------------*- C++ -*----------------------------------*\
  =========                 |
  \\      /  F ield         | OpenFOAM: The Open Source CFD Toolbox
   \\    /   O peration     | Website:  https://openfoam.org
    \\  /    A nd           | Version:  6
     \\/     M anipulation  |
\*---------------------------------------------------------------------------*/
FoamFile
{
    version     2.0;
    format      ascii;
    class       volScalarField;
    location    "0";
    object      V;
}
// * * * * * * * * * * * * * * * * * * * * * * * * * * * * * * * * * * * * * //

dimensions      [0 3 0 0 0 0 0];

internalField   nonuniform List<scalar> 
1596
(
0.00134338
0.00135328
0.00136269
0.00137279
0.00138162
0.00138921
0.0013949
0.00139793
0.0013976
0.00139433
0.00138324
0.00136734
0.00134418
0.00131335
0.0012693
0.00122218
0.00115733
0.00108463
0.00100672
0.00132886
0.00133655
0.00134384
0.00135097
0.00135708
0.00136147
0.00136438
0.00136452
0.0013614
0.00135575
0.00134201
0.00132403
0.00129918
0.00126716
0.0012223
0.00117526
0.00111098
0.00103966
0.000963892
0.0013113
0.00131718
0.00132278
0.00132724
0.00133098
0.00133246
0.00133296
0.00133056
0.00132503
0.00131746
0.00130148
0.00128193
0.00125596
0.0012234
0.00117845
0.0011323
0.00106948
0.00100051
0.000927951
0.00128572
0.00129059
0.00129532
0.00129786
0.00130001
0.00129933
0.00129821
0.00129407
0.00128694
0.00127831
0.00126095
0.00124074
0.0012146
0.0011825
0.00113848
0.00109432
0.00103408
0.000968626
0.000900449
0.00124909
0.00125407
0.00125904
0.00126079
0.00126247
0.00126078
0.00125919
0.00125446
0.00124691
0.00123839
0.00122087
0.00120119
0.00117609
0.00114565
0.00110379
0.00106278
0.00100628
0.000945444
0.000882706
0.00120251
0.00120877
0.00121515
0.00121737
0.00121983
0.00121842
0.00121762
0.00121359
0.0012069
0.00119973
0.00118332
0.00116542
0.00114255
0.00111491
0.00107629
0.00103941
0.000987559
0.000932128
0.000875481
0.00115111
0.00115962
0.00116834
0.00117212
0.0011764
0.00117643
0.00117748
0.00117524
0.00117049
0.00116569
0.00115146
0.0011363
0.00111657
0.00109253
0.00105789
0.0010257
0.000978942
0.000929199
0.000878757
0.00110166
0.00111296
0.00112457
0.00113066
0.00113744
0.00113967
0.00114327
0.00114354
0.00114143
0.00113959
0.00112822
0.00111635
0.00110021
0.00108013
0.00104974
0.00102232
0.000980638
0.000936379
0.000891773
0.001053
0.00106763
0.00108263
0.00109164
0.00110152
0.00110662
0.00111337
0.00111679
0.00111792
0.0011196
0.00111169
0.00110362
0.00109153
0.0010758
0.00104999
0.00102753
0.000991041
0.000952262
0.000913362
0.00103244
0.00104948
0.00106693
0.00107817
0.00109037
0.00109771
0.00110683
0.00111262
0.0011162
0.00112046
0.00111513
0.00110981
0.00110061
0.00108791
0.00106524
0.0010461
0.00101303
0.000977793
0.000942514
0.0010185
0.0010379
0.00105773
0.00107122
0.00108573
0.00109532
0.0011068
0.00111497
0.00112098
0.00112778
0.001125
0.00112236
0.00111594
0.00110612
0.00108643
0.00107036
0.00104045
0.00100842
0.000976388
0.000999985
0.00102222
0.00104491
0.00106114
0.00107846
0.00109082
0.00110516
0.00111621
0.00112516
0.00113501
0.0011353
0.00113585
0.00113271
0.00112626
0.00111004
0.00109752
0.00107121
0.00104282
0.00101442
0.00100879
0.0010327
0.00105708
0.00107499
0.00109401
0.0011081
0.00112419
0.00113703
0.00114779
0.00115948
0.00116166
0.00116413
0.00116295
0.0011585
0.0011443
0.00113379
0.00110951
0.00108313
0.00105671
0.00102825
0.00105341
0.00107903
0.00109824
0.00111856
0.00113399
0.00115143
0.00116564
0.00117781
0.0011909
0.00119454
0.00119847
0.00119877
0.0011958
0.0011831
0.00117406
0.00115125
0.00112629
0.00110125
0.00104964
0.00107603
0.00110289
0.00112339
0.00114501
0.00116178
0.00118056
0.00119614
0.0012097
0.00122419
0.00122929
0.00123467
0.00123643
0.00123491
0.00122367
0.00121607
0.00119467
0.00117109
0.00114738
0.00108205
0.00110917
0.00113676
0.00115808
0.00118051
0.00119815
0.00121778
0.00123425
0.00124871
0.00126408
0.00127011
0.0012764
0.00127907
0.00127845
0.0012681
0.00126133
0.00124075
0.00121794
0.00119494
0.00112913
0.00115624
0.00118381
0.00120524
0.00122776
0.00124556
0.00126531
0.00128193
0.00129654
0.00131203
0.00131823
0.00132466
0.00132743
0.00132688
0.0013166
0.00130982
0.00128922
0.00126633
0.00124322
0.00118024
0.00120712
0.00123445
0.00125577
0.00127815
0.0012959
0.00131554
0.00133208
0.00134663
0.001362
0.00136815
0.00137446
0.0013771
0.00137638
0.0013659
0.00135887
0.00133799
0.00131478
0.00129131
0.00122427
0.00125127
0.00127872
0.00130027
0.00132287
0.0013409
0.00136079
0.00137761
0.00139244
0.00140806
0.00141452
0.0014211
0.00142398
0.00142348
0.0014132
0.00140632
0.00138555
0.00136242
0.00133899
0.00129245
0.00131828
0.00134454
0.00136507
0.00138659
0.00140365
0.00142249
0.0014383
0.00145209
0.00146663
0.00147205
0.00147752
0.00147926
0.00147755
0.00146605
0.00145787
0.00143579
0.00141131
0.00138651
0.00137207
0.00139602
0.00142038
0.0014392
0.00145896
0.00147435
0.00149145
0.00150552
0.00151758
0.0015303
0.00153395
0.00153756
0.00153738
0.00153371
0.0015202
0.00150993
0.00148575
0.00145914
0.00143221
0.00145479
0.00147656
0.00149871
0.00151551
0.00153321
0.00154663
0.00156167
0.00157371
0.0015837
0.00159428
0.00159582
0.00159724
0.0015948
0.0015888
0.00157292
0.0015602
0.00153354
0.00150443
0.00147499
0.00154423
0.00156328
0.00158269
0.00159696
0.00161206
0.00162299
0.00163544
0.0016449
0.00165228
0.00166016
0.00165903
0.00165766
0.00165236
0.00164341
0.00162451
0.00160869
0.00157888
0.00154659
0.00151398
0.00163597
0.00165193
0.00166822
0.00167964
0.0016918
0.00169992
0.00170942
0.00171595
0.00172036
0.00172513
0.00172095
0.00171637
0.00170774
0.00169536
0.00167295
0.00165349
0.00161997
0.00158392
0.00154753
0.00167805
0.00166079
0.0016436
0.0016212
0.00159902
0.00157202
0.00154579
0.0015157
0.00148259
0.00144925
0.00140551
0.00136092
0.00131172
0.0012585
0.00119505
0.00113538
0.00106239
0.000988406
0.000915796
0.00168435
0.00166387
0.00164341
0.0016182
0.00159308
0.0015634
0.00153427
0.00150136
0.00146541
0.00142902
0.00138247
0.00133481
0.00128243
0.00122589
0.0011591
0.00109574
0.00101911
0.000941279
0.000864638
0.0016406
0.00162013
0.00159962
0.00157493
0.00155017
0.00152119
0.0014925
0.00146014
0.00142471
0.00138859
0.0013426
0.00129516
0.00124284
0.00118609
0.00111899
0.00105478
0.00097717
0.000897932
0.000819453
0.00154654
0.00152831
0.00150998
0.00148801
0.00146582
0.00143975
0.00141372
0.00138414
0.00135147
0.00131787
0.00127471
0.00122978
0.00117978
0.00112511
0.00105997
0.000997111
0.00092069
0.000842126
0.000763792
0.0014315
0.00141616
0.00140069
0.00138198
0.00136295
0.0013403
0.0013175
0.00129127
0.00126196
0.00123155
0.00119186
0.00115015
0.00110327
0.00105152
0.000989248
0.000928759
0.000854592
0.000777832
0.000700825
0.00131057
0.00129815
0.00128557
0.00127003
0.00125412
0.00123479
0.00121519
0.00119225
0.00116626
0.00113905
0.0011028
0.00106437
0.00102068
0.000972004
0.000912775
0.000854909
0.000783298
0.000708705
0.000633443
0.0012121
0.00120106
0.00118986
0.0011758
0.00116136
0.00114359
0.00112553
0.0011042
0.00107985
0.00105427
0.00101982
0.000983157
0.000941257
0.000894357
0.000836981
0.00078077
0.000710878
0.000637835
0.000563913
0.00112172
0.00111152
0.00110116
0.00108798
0.00107442
0.00105759
0.00104047
0.00102014
0.000996842
0.000972314
0.000939082
0.000903631
0.000862998
0.000817396
0.000761424
0.000706493
0.000637988
0.000566233
0.000493461
0.00103746
0.0010277
0.00101778
0.00100503
0.000991932
0.000975585
0.000958978
0.000939207
0.000916525
0.000892642
0.000860191
0.000825553
0.000785805
0.000741147
0.000686244
0.00063231
0.000564941
0.000494273
0.000422503
0.000964977
0.000954928
0.000944748
0.00093165
0.000918242
0.000901575
0.000884708
0.000864714
0.000841867
0.000817887
0.000785442
0.000750895
0.000711346
0.000666993
0.00061256
0.000559122
0.000492443
0.000422517
0.000351501
0.000912854
0.00091628
0.000919585
0.000919795
0.0009197
0.000916174
0.000912423
0.000905341
0.000895165
0.000883661
0.000862962
0.000839693
0.000810644
0.000775877
0.000729418
0.000683277
0.000621476
0.000554927
0.00048603
0.000876731
0.000885712
0.000894626
0.000900383
0.000905941
0.000908117
0.000910198
0.000909046
0.000904912
0.000899553
0.000885094
0.000868114
0.000845363
0.000816843
0.000776461
0.000736238
0.000679935
0.000618487
0.000554307
0.000859744
0.000867367
0.000874944
0.000879137
0.000883188
0.000883721
0.000884259
0.00088152
0.000875811
0.000868976
0.000852949
0.000834539
0.000810452
0.000780726
0.00073924
0.000698158
0.000641148
0.000579238
0.000514835
0.000850399
0.000856569
0.000862717
0.000865244
0.000867691
0.000866479
0.000865378
0.000860956
0.000853579
0.000845182
0.000827496
0.000807578
0.000782083
0.000751089
0.000708446
0.000666472
0.000608734
0.000546361
0.00048176
0.000842017
0.000847027
0.000852034
0.000853227
0.000854388
0.000851776
0.000849361
0.000843587
0.000834867
0.000825216
0.000806193
0.000785058
0.000758427
0.00072641
0.00068283
0.000640133
0.000581805
0.000519055
0.000454292
0.000835881
0.000839982
0.000844095
0.000844242
0.000844396
0.000840686
0.000837241
0.000830408
0.000820639
0.000810006
0.000789937
0.000767853
0.000740338
0.000707526
0.000663221
0.000619971
0.000561194
0.000498166
0.000433297
0.000831804
0.000835265
0.00083875
0.000838161
0.000837606
0.000833123
0.000828952
0.000821372
0.000810861
0.000799534
0.000778725
0.000755966
0.00072782
0.000694439
0.000649613
0.000605961
0.000546855
0.000483618
0.000418659
0.000829626
0.000832745
0.000835893
0.000834911
0.000833977
0.000829082
0.000824523
0.000816543
0.000805636
0.000793936
0.000772731
0.000749611
0.000721128
0.000687441
0.000642334
0.000598466
0.000539181
0.00047583
0.00041082
0.0008296
0.00083272
0.00083587
0.00083489
0.000833958
0.000829064
0.000824506
0.000816528
0.000805622
0.000793924
0.00077272
0.000749602
0.000721119
0.000687434
0.000642329
0.000598462
0.000539179
0.000475829
0.000410822
0.000831711
0.000835178
0.000838669
0.000838086
0.000837536
0.000833058
0.000828893
0.000821318
0.000810812
0.000799489
0.000778685
0.000755931
0.00072779
0.000694414
0.000649592
0.000605946
0.000546844
0.000483613
0.000418659
0.000835752
0.00083986
0.000843982
0.000844136
0.000844297
0.000840594
0.000837156
0.00083033
0.000820567
0.000809941
0.000789879
0.000767801
0.000740292
0.000707487
0.000663188
0.000619945
0.000561175
0.000498155
0.000433293
0.000841854
0.000846874
0.000851892
0.000853095
0.000854265
0.000851663
0.000849256
0.000843491
0.00083478
0.000825137
0.000806122
0.000784996
0.000758373
0.000726364
0.000682793
0.000640106
0.000581787
0.000519048
0.000454295
0.000850202
0.000856385
0.000862545
0.000865084
0.000867542
0.000866341
0.000865251
0.000860839
0.000853472
0.000845086
0.00082741
0.000807501
0.000782016
0.000751033
0.000708401
0.000666437
0.000608711
0.00054635
0.000481762
0.000859493
0.000867132
0.000874725
0.000878933
0.000882999
0.000883547
0.000884098
0.000881373
0.000875678
0.000868856
0.000852841
0.000834445
0.000810371
0.000780658
0.000739187
0.000698119
0.000641124
0.00057923
0.000514843
0.000876412
0.000885378
0.000894276
0.000900018
0.000905562
0.000907724
0.000909791
0.000908627
0.000904483
0.000899114
0.00088465
0.000867667
0.000844917
0.000816402
0.000776034
0.000735827
0.000679551
0.000618136
0.000553994
0.000912499
0.000916115
0.000919608
0.000920006
0.000920098
0.000916756
0.00091319
0.00090629
0.000896294
0.000884967
0.000864439
0.000841336
0.000812445
0.000777826
0.000731499
0.000685482
0.000623781
0.000557314
0.000488485
0.000964494
0.000954532
0.000944436
0.000931418
0.000918089
0.000901495
0.0008847
0.000864773
0.00084199
0.000818071
0.000785678
0.00075118
0.000711674
0.000667358
0.000612952
0.000559538
0.000492869
0.000422946
0.000351929
0.00103699
0.00102726
0.00101737
0.00100465
0.000991574
0.000975252
0.000958669
0.000938923
0.000916265
0.000892407
0.000859981
0.000825368
0.000785647
0.000741016
0.000686143
0.00063224
0.000564904
0.000494271
0.000422537
0.00112126
0.00111108
0.00110075
0.0010876
0.00107406
0.00105726
0.00104016
0.00101986
0.000996582
0.000972079
0.000938873
0.000903447
0.00086284
0.000817267
0.000761324
0.000706423
0.000637951
0.000566231
0.000493496
0.00121164
0.00120063
0.00118946
0.00117543
0.00116101
0.00114327
0.00112523
0.00110392
0.0010796
0.00105404
0.00101962
0.000982977
0.000941103
0.000894231
0.000836884
0.000780703
0.000710843
0.000637834
0.000563948
0.00131014
0.00129774
0.00128519
0.00126968
0.00125379
0.00123448
0.0012149
0.00119199
0.00116602
0.00113883
0.0011026
0.0010642
0.00102053
0.000971884
0.000912684
0.000854846
0.000783266
0.000708706
0.000633479
0.00143104
0.00141574
0.00140029
0.0013816
0.0013626
0.00133997
0.0013172
0.00129099
0.00126171
0.00123132
0.00119165
0.00114998
0.00110312
0.0010514
0.000989153
0.000928695
0.00085456
0.000777833
0.000700861
0.00154614
0.00152793
0.00150963
0.00148768
0.00146551
0.00143947
0.00141345
0.00138389
0.00135124
0.00131767
0.00127453
0.00122962
0.00117965
0.001125
0.00105988
0.000997056
0.000920664
0.000842131
0.00076383
0.00164025
0.0016198
0.00159931
0.00157464
0.0015499
0.00152094
0.00149226
0.00145992
0.00142451
0.00138841
0.00134244
0.00129503
0.00124272
0.001186
0.00111892
0.00105474
0.000977152
0.000897943
0.000819493
0.00168402
0.00166356
0.00164311
0.00161793
0.00159282
0.00156316
0.00153405
0.00150116
0.00146523
0.00142885
0.00138232
0.00133468
0.00128233
0.00122581
0.00115904
0.0010957
0.00101909
0.000941293
0.000864678
0.00167801
0.00166089
0.00164383
0.00162155
0.00159948
0.00157257
0.00154644
0.00151642
0.00148337
0.00145009
0.00140637
0.00136179
0.00131258
0.00125935
0.00119584
0.00113612
0.00106303
0.000988949
0.00091623
0.00163624
0.00165257
0.00166923
0.00168101
0.00169352
0.00170198
0.00171182
0.00171868
0.0017234
0.00172848
0.00172458
0.00172027
0.0017119
0.00169974
0.00167752
0.00165824
0.00162485
0.00158889
0.00155257
0.00154425
0.00156329
0.0015827
0.00159698
0.00161207
0.00162301
0.00163545
0.00164491
0.00165229
0.00166017
0.00165904
0.00165767
0.00165236
0.00164341
0.00162451
0.00160869
0.00157888
0.00154659
0.00151398
0.00145479
0.00147656
0.00149872
0.00151552
0.00153322
0.00154663
0.00156167
0.00157371
0.0015837
0.00159428
0.00159583
0.00159724
0.00159481
0.0015888
0.00157292
0.0015602
0.00153354
0.00150443
0.001475
0.00137207
0.00139602
0.00142039
0.0014392
0.00145896
0.00147435
0.00149145
0.00150553
0.00151758
0.0015303
0.00153395
0.00153756
0.00153739
0.00153371
0.0015202
0.00150993
0.00148575
0.00145914
0.00143221
0.00129246
0.00131828
0.00134454
0.00136507
0.0013866
0.00140365
0.0014225
0.0014383
0.0014521
0.00146663
0.00147205
0.00147753
0.00147926
0.00147756
0.00146605
0.00145787
0.00143579
0.00141131
0.00138651
0.00122427
0.00125127
0.00127872
0.00130028
0.00132287
0.0013409
0.00136079
0.00137762
0.00139244
0.00140807
0.00141452
0.0014211
0.00142398
0.00142348
0.00141321
0.00140632
0.00138555
0.00136243
0.00133899
0.00118024
0.00120712
0.00123445
0.00125577
0.00127815
0.0012959
0.00131554
0.00133209
0.00134663
0.001362
0.00136815
0.00137446
0.0013771
0.00137638
0.0013659
0.00135887
0.00133799
0.00131478
0.00129132
0.00112913
0.00115624
0.00118381
0.00120524
0.00122776
0.00124556
0.00126531
0.00128193
0.00129654
0.00131203
0.00131823
0.00132466
0.00132743
0.00132689
0.0013166
0.00130982
0.00128922
0.00126633
0.00124322
0.00108205
0.00110917
0.00113676
0.00115808
0.00118051
0.00119815
0.00121778
0.00123425
0.00124871
0.00126408
0.00127011
0.00127641
0.00127907
0.00127845
0.0012681
0.00126133
0.00124075
0.00121794
0.00119494
0.00104964
0.00107603
0.00110289
0.00112339
0.00114501
0.00116178
0.00118056
0.00119614
0.0012097
0.00122419
0.00122929
0.00123467
0.00123643
0.00123491
0.00122368
0.00121607
0.00119468
0.0011711
0.00114738
0.00102825
0.00105341
0.00107903
0.00109824
0.00111856
0.00113399
0.00115143
0.00116564
0.00117781
0.0011909
0.00119454
0.00119848
0.00119877
0.0011958
0.0011831
0.00117406
0.00115125
0.0011263
0.00110125
0.00100879
0.0010327
0.00105708
0.00107499
0.00109401
0.0011081
0.00112419
0.00113703
0.0011478
0.00115948
0.00116166
0.00116414
0.00116296
0.0011585
0.0011443
0.0011338
0.00110951
0.00108313
0.00105671
0.000999977
0.00102221
0.00104491
0.00106114
0.00107845
0.00109081
0.00110515
0.00111621
0.00112516
0.001135
0.0011353
0.00113584
0.00113271
0.00112626
0.00111004
0.00109752
0.00107121
0.00104282
0.00101442
0.00101849
0.00103789
0.00105772
0.00107121
0.00108572
0.00109532
0.0011068
0.00111497
0.00112098
0.00112778
0.001125
0.00112236
0.00111594
0.00110612
0.00108643
0.00107036
0.00104045
0.00100842
0.00097639
0.00103244
0.00104948
0.00106693
0.00107817
0.00109037
0.00109771
0.00110683
0.00111262
0.0011162
0.00112046
0.00111513
0.00110981
0.00110061
0.00108791
0.00106524
0.0010461
0.00101303
0.000977795
0.000942515
0.00105301
0.00106764
0.00108264
0.00109165
0.00110153
0.00110663
0.00111338
0.00111679
0.00111792
0.0011196
0.00111169
0.00110362
0.00109154
0.00107581
0.00104999
0.00102753
0.000991043
0.000952263
0.000913364
0.00110166
0.00111297
0.00112458
0.00113066
0.00113744
0.00113967
0.00114327
0.00114355
0.00114143
0.00113959
0.00112823
0.00111635
0.00110021
0.00108014
0.00104975
0.00102232
0.000980638
0.00093638
0.000891773
0.00115112
0.00115962
0.00116834
0.00117213
0.00117641
0.00117643
0.00117748
0.00117525
0.00117049
0.00116569
0.00115147
0.0011363
0.00111657
0.00109253
0.00105789
0.0010257
0.000978943
0.000929199
0.000878758
0.00120251
0.00120878
0.00121515
0.00121738
0.00121983
0.00121842
0.00121762
0.00121359
0.0012069
0.00119973
0.00118332
0.00116542
0.00114255
0.00111491
0.00107629
0.00103941
0.000987559
0.000932128
0.000875481
0.00124909
0.00125407
0.00125904
0.00126079
0.00126247
0.00126079
0.00125919
0.00125447
0.00124692
0.0012384
0.00122087
0.00120119
0.00117609
0.00114565
0.00110379
0.00106278
0.00100628
0.000945444
0.000882705
0.00128572
0.00129059
0.00129532
0.00129786
0.00130001
0.00129933
0.00129822
0.00129407
0.00128694
0.00127831
0.00126095
0.00124074
0.0012146
0.0011825
0.00113848
0.00109432
0.00103408
0.000968625
0.000900449
0.00131131
0.00131719
0.00132279
0.00132725
0.00133099
0.00133247
0.00133297
0.00133057
0.00132504
0.00131747
0.00130149
0.00128193
0.00125596
0.0012234
0.00117845
0.0011323
0.00106948
0.00100051
0.000927951
0.00132887
0.00133655
0.00134385
0.00135097
0.00135708
0.00136147
0.00136439
0.00136452
0.0013614
0.00135576
0.00134201
0.00132403
0.00129918
0.00126716
0.0012223
0.00117526
0.00111098
0.00103966
0.000963892
0.00134338
0.00135328
0.00136269
0.00137279
0.00138163
0.00138922
0.0013949
0.00139793
0.00139761
0.00139433
0.00138324
0.00136734
0.00134418
0.00131335
0.0012693
0.00122218
0.00115733
0.00108463
0.00100672
)
;

boundaryField
{
    up
    {
        type            calculated;
        value           uniform 0;
    }
    low
    {
        type            calculated;
        value           uniform 0;
    }
    left
    {
        type            calculated;
        value           uniform 0;
    }
    right
    {
        type            calculated;
        value           uniform 0;
    }
    frontAndBackPlanes
    {
        type            empty;
    }
}


// ************************************************************************* //
