/*--------------------------------*- C++ -*----------------------------------*\
  =========                 |
  \\      /  F ield         | OpenFOAM: The Open Source CFD Toolbox
   \\    /   O peration     | Website:  https://openfoam.org
    \\  /    A nd           | Version:  6
     \\/     M anipulation  |
\*---------------------------------------------------------------------------*/
FoamFile
{
    version     2.0;
    format      ascii;
    class       volScalarField;
    location    "120";
    object      T;
}
// * * * * * * * * * * * * * * * * * * * * * * * * * * * * * * * * * * * * * //

dimensions      [0 0 0 1 0 0 0];

internalField   nonuniform List<scalar> 
13524
(
0.0293175
0.0887167
0.148768
0.20947
0.270832
0.33286
0.395568
0.458968
0.523074
0.587903
0.653469
0.71979
0.786883
0.854766
0.923457
0.992976
1.06334
1.13458
1.20671
1.27975
1.35373
1.42867
1.50459
1.58153
1.6595
1.73855
1.81869
1.89996
1.9824
2.06603
2.15088
2.23701
2.32444
2.41322
2.50338
2.59498
2.68805
2.78265
2.87883
2.97663
3.07613
3.17736
3.28041
3.38533
3.4922
3.60109
3.71208
3.82527
3.94079
0.0294412
0.0889674
0.149085
0.209826
0.271208
0.333248
0.395963
0.459368
0.523477
0.588308
0.653876
0.720198
0.787292
0.855175
0.923866
0.993386
1.06375
1.13499
1.20712
1.28016
1.35414
1.42908
1.505
1.58194
1.65991
1.73896
1.8191
1.90037
1.98281
2.06644
2.15129
2.23742
2.32485
2.41363
2.50379
2.59539
2.68846
2.78306
2.87924
2.97704
3.07654
3.17777
3.28082
3.38574
3.4926
3.60148
3.71246
3.82561
3.941
0.0293585
0.0888277
0.148933
0.209675
0.271064
0.333112
0.395833
0.459242
0.523355
0.588188
0.653758
0.720082
0.787176
0.85506
0.923752
0.993272
1.06364
1.13488
1.207
1.28005
1.35402
1.42896
1.50489
1.58182
1.6598
1.73885
1.81899
1.90026
1.98269
2.06632
2.15118
2.23731
2.32474
2.41352
2.50368
2.59528
2.68835
2.78295
2.87912
2.97693
3.07642
3.17766
3.2807
3.38562
3.49248
3.60135
3.71232
3.82546
3.94087
0.0294585
0.0890183
0.149166
0.209931
0.271332
0.333388
0.396114
0.459527
0.523643
0.588478
0.65405
0.720374
0.787469
0.855354
0.924046
0.993567
1.06394
1.13517
1.2073
1.28034
1.35432
1.42926
1.50518
1.58212
1.6601
1.73914
1.81928
1.90056
1.98299
2.06662
2.15148
2.2376
2.32503
2.41381
2.50398
2.59557
2.68864
2.78324
2.87942
2.97722
3.07672
3.17795
3.281
3.38591
3.49277
3.60164
3.71259
3.82571
3.94104
0.0293649
0.0888463
0.148962
0.209714
0.271111
0.333165
0.395891
0.459304
0.523421
0.588256
0.653828
0.720152
0.787248
0.855133
0.923826
0.993346
1.06371
1.13495
1.20708
1.28012
1.3541
1.42904
1.50496
1.5819
1.65988
1.73892
1.81906
1.90034
1.98277
2.0664
2.15126
2.23738
2.32481
2.41359
2.50376
2.59535
2.68842
2.78302
2.8792
2.977
3.0765
3.17773
3.28077
3.38569
3.49255
3.60141
3.71237
3.82549
3.94088
0.0294522
0.0890025
0.149143
0.209902
0.271299
0.333352
0.396076
0.459488
0.523603
0.588438
0.654009
0.720333
0.787428
0.855312
0.924005
0.993526
1.06389
1.13513
1.20726
1.2803
1.35428
1.42922
1.50514
1.58208
1.66006
1.7391
1.81924
1.90052
1.98295
2.06658
2.15144
2.23756
2.32499
2.41377
2.50394
2.59553
2.6886
2.7832
2.87938
2.97718
3.07668
3.17791
3.28096
3.38587
3.49273
3.6016
3.71256
3.82568
3.94103
0.0293498
0.0888026
0.148894
0.209627
0.271009
0.333053
0.395771
0.459179
0.523291
0.588123
0.653693
0.720016
0.787111
0.854995
0.923687
0.993207
1.06357
1.13481
1.20694
1.27998
1.35396
1.4289
1.50482
1.58176
1.65974
1.73878
1.81892
1.9002
1.98263
2.06626
2.15112
2.23724
2.32468
2.41345
2.50362
2.59521
2.68829
2.78288
2.87906
2.97687
3.07636
3.17759
3.28064
3.38556
3.49242
3.6013
3.71227
3.82542
3.94085
0.0294063
0.0888969
0.148997
0.209727
0.271104
0.333142
0.395855
0.459259
0.523368
0.588198
0.653766
0.720088
0.787182
0.855065
0.923757
0.993277
1.06364
1.13488
1.20701
1.28005
1.35403
1.42897
1.50489
1.58183
1.6598
1.73885
1.81899
1.90027
1.9827
2.06633
2.15119
2.23731
2.32474
2.41352
2.50369
2.59528
2.68835
2.78295
2.87913
2.97694
3.07643
3.17767
3.28071
3.38563
3.4925
3.60138
3.71236
3.82552
3.94094
0.0293518
0.0887866
0.148857
0.20957
0.270937
0.332969
0.395678
0.459079
0.523187
0.588016
0.653584
0.719905
0.786998
0.854881
0.923573
0.993093
1.06346
1.1347
1.20682
1.27987
1.35384
1.42878
1.50471
1.58164
1.65962
1.73866
1.81881
1.90008
1.98251
2.06614
2.151
2.23713
2.32456
2.41334
2.5035
2.5951
2.68817
2.78277
2.87894
2.97675
3.07624
3.17748
3.28053
3.38545
3.49231
3.6012
3.71219
3.82537
3.94085
0.0293319
0.0887527
0.148819
0.209533
0.270901
0.332934
0.395645
0.459047
0.523156
0.587985
0.653553
0.719875
0.786968
0.854851
0.923542
0.993062
1.06343
1.13467
1.20679
1.27983
1.35381
1.42875
1.50467
1.58161
1.65959
1.73863
1.81878
1.90005
1.98248
2.06611
2.15097
2.2371
2.32453
2.4133
2.50347
2.59506
2.68814
2.78274
2.87891
2.97672
3.07621
3.17745
3.2805
3.38542
3.49228
3.60117
3.71215
3.82533
3.94082
0.0294377
0.0889641
0.149085
0.209829
0.271214
0.333258
0.395976
0.459382
0.523494
0.588325
0.653894
0.720217
0.787311
0.855194
0.923886
0.993406
1.06377
1.13501
1.20714
1.28018
1.35416
1.42909
1.50502
1.58196
1.65993
1.73898
1.81912
1.90039
1.98283
2.06645
2.15131
2.23744
2.32487
2.41365
2.50381
2.59541
2.68848
2.78308
2.87926
2.97706
3.07655
3.17779
3.28084
3.38576
3.49262
3.6015
3.71247
3.82562
3.941
0.0293632
0.088836
0.148943
0.209686
0.271076
0.333125
0.395847
0.459257
0.523371
0.588205
0.653775
0.720099
0.787193
0.855077
0.923769
0.993289
1.06366
1.13489
1.20702
1.28006
1.35404
1.42898
1.5049
1.58184
1.65981
1.73886
1.819
1.90028
1.98271
2.06634
2.1512
2.23732
2.32475
2.41353
2.5037
2.59529
2.68836
2.78296
2.87914
2.97695
3.07644
3.17768
3.28072
3.38564
3.4925
3.60137
3.71233
3.82547
3.94088
0.0294461
0.0889931
0.149134
0.209895
0.271295
0.33335
0.396076
0.459489
0.523604
0.588439
0.654011
0.720335
0.78743
0.855314
0.924007
0.993526
1.06389
1.13513
1.20726
1.2803
1.35428
1.42921
1.50514
1.58207
1.66005
1.7391
1.81924
1.90051
1.98295
2.06657
2.15143
2.23756
2.32499
2.41377
2.50393
2.59553
2.6886
2.7832
2.87938
2.97718
3.07668
3.17791
3.28096
3.38587
3.49273
3.6016
3.71255
3.82567
3.94102
0.029369
0.0888511
0.148965
0.209715
0.271111
0.333165
0.395891
0.459304
0.52342
0.588255
0.653826
0.720151
0.787246
0.85513
0.923822
0.993342
1.06371
1.13495
1.20707
1.28011
1.35409
1.42903
1.50495
1.58189
1.65987
1.73891
1.81905
1.90033
1.98276
2.06639
2.15125
2.23737
2.3248
2.41358
2.50375
2.59534
2.68842
2.78302
2.87919
2.977
3.07649
3.17773
3.28077
3.38569
3.49254
3.60141
3.71237
3.8255
3.94089
0.0294391
0.0889776
0.149113
0.209871
0.271267
0.33332
0.396044
0.459456
0.52357
0.588405
0.653975
0.720299
0.787393
0.855276
0.923968
0.993487
1.06385
1.13509
1.20722
1.28026
1.35423
1.42917
1.5051
1.58203
1.66001
1.73905
1.8192
1.90047
1.9829
2.06653
2.15139
2.23752
2.32495
2.41373
2.50389
2.59549
2.68856
2.78316
2.87934
2.97714
3.07664
3.17787
3.28092
3.38584
3.4927
3.60157
3.71253
3.82565
3.941
0.0293643
0.0888339
0.148936
0.209675
0.271061
0.333107
0.395826
0.459234
0.523346
0.588177
0.653746
0.720068
0.787161
0.855044
0.923735
0.993253
1.06362
1.13486
1.20698
1.28002
1.354
1.42894
1.50486
1.5818
1.65977
1.73882
1.81896
1.90023
1.98267
2.0663
2.15115
2.23728
2.32471
2.41349
2.50365
2.59525
2.68833
2.78293
2.8791
2.97691
3.0764
3.17764
3.28069
3.38561
3.49247
3.60135
3.71232
3.82546
3.94088
0.0294208
0.0889298
0.149041
0.209778
0.271159
0.333198
0.395912
0.459316
0.523424
0.588253
0.653819
0.720139
0.787231
0.855112
0.923802
0.993321
1.06369
1.13492
1.20705
1.28009
1.35406
1.429
1.50493
1.58186
1.65984
1.73888
1.81903
1.9003
1.98273
2.06636
2.15122
2.23735
2.32478
2.41355
2.50372
2.59532
2.68839
2.78299
2.87917
2.97698
3.07647
3.17771
3.28076
3.38568
3.49255
3.60144
3.71241
3.82557
3.94097
0.0293447
0.088777
0.148848
0.209562
0.270928
0.332959
0.395666
0.459065
0.523169
0.587995
0.65356
0.719878
0.786969
0.854849
0.923538
0.993056
1.06342
1.13466
1.20678
1.27982
1.3538
1.42874
1.50466
1.58159
1.65957
1.73862
1.81876
1.90003
1.98246
2.06609
2.15095
2.23708
2.32451
2.41329
2.50345
2.59505
2.68812
2.78273
2.8789
2.97671
3.07621
3.17745
3.2805
3.38543
3.4923
3.60119
3.71218
3.82536
3.94084
0.0293607
0.0888024
0.148874
0.209585
0.270948
0.332976
0.395681
0.459077
0.52318
0.588005
0.653568
0.719885
0.786975
0.854854
0.923543
0.99306
1.06343
1.13466
1.20679
1.27982
1.3538
1.42874
1.50466
1.5816
1.65957
1.73862
1.81876
1.90003
1.98247
2.0661
2.15095
2.23708
2.32451
2.41329
2.50346
2.59505
2.68813
2.78273
2.87891
2.97672
3.07621
3.17746
3.28051
3.38543
3.49231
3.6012
3.7122
3.82539
3.94086
0.0293878
0.0888572
0.148943
0.209662
0.271029
0.333058
0.395764
0.459161
0.523264
0.588088
0.653651
0.719968
0.787058
0.854937
0.923626
0.993142
1.06351
1.13474
1.20687
1.27991
1.35388
1.42882
1.50474
1.58168
1.65965
1.7387
1.81884
1.90011
1.98255
2.06618
2.15104
2.23716
2.32459
2.41337
2.50354
2.59513
2.68821
2.78281
2.87899
2.9768
3.0763
3.17754
3.28059
3.38552
3.49239
3.60129
3.71228
3.82546
3.94091
0.0293558
0.0888036
0.148885
0.209605
0.270975
0.333008
0.395716
0.459115
0.523219
0.588045
0.653608
0.719926
0.787016
0.854896
0.923584
0.993101
1.06347
1.1347
1.20683
1.27986
1.35384
1.42878
1.5047
1.58164
1.65961
1.73866
1.8188
1.90007
1.98251
2.06613
2.15099
2.23712
2.32455
2.41333
2.5035
2.59509
2.68817
2.78277
2.87895
2.97676
3.07625
3.1775
3.28055
3.38547
3.49235
3.60124
3.71223
3.8254
3.94086
0.0294146
0.0889192
0.149029
0.209765
0.271145
0.333184
0.395897
0.459299
0.523406
0.588234
0.653798
0.720117
0.787208
0.855088
0.923777
0.993294
1.06366
1.13489
1.20702
1.28006
1.35403
1.42897
1.50489
1.58183
1.65981
1.73885
1.81899
1.90027
1.9827
2.06633
2.15119
2.23731
2.32475
2.41352
2.50369
2.59529
2.68836
2.78296
2.87914
2.97695
3.07645
3.17769
3.28074
3.38566
3.49253
3.60142
3.7124
3.82556
3.94096
0.0293714
0.0888435
0.148943
0.209678
0.27106
0.333102
0.395818
0.459222
0.523331
0.58816
0.653726
0.720046
0.787138
0.855019
0.923708
0.993225
1.06359
1.13483
1.20695
1.27999
1.35397
1.4289
1.50483
1.58176
1.65974
1.73878
1.81893
1.9002
1.98263
2.06626
2.15112
2.23725
2.32468
2.41346
2.50362
2.59522
2.68829
2.78289
2.87907
2.97688
3.07638
3.17762
3.28067
3.38559
3.49246
3.60134
3.71232
3.82547
3.94089
0.0294138
0.0889233
0.149041
0.209785
0.271172
0.333217
0.395935
0.459342
0.523453
0.588283
0.653851
0.720171
0.787264
0.855145
0.923835
0.993353
1.06372
1.13495
1.20708
1.28012
1.3541
1.42903
1.50496
1.58189
1.65987
1.73891
1.81905
1.90033
1.98276
2.06639
2.15125
2.23737
2.32481
2.41358
2.50375
2.59535
2.68842
2.78302
2.8792
2.97701
3.0765
3.17774
3.28079
3.38571
3.49258
3.60146
3.71243
3.82557
3.94096
0.0293772
0.0888563
0.148961
0.209701
0.271087
0.333133
0.395852
0.45926
0.523371
0.588202
0.653771
0.720092
0.787185
0.855067
0.923757
0.993275
1.06364
1.13488
1.207
1.28004
1.35402
1.42896
1.50488
1.58181
1.65979
1.73884
1.81898
1.90025
1.98268
2.06631
2.15117
2.2373
2.32473
2.41351
2.50367
2.59527
2.68834
2.78295
2.87912
2.97693
3.07643
3.17767
3.28071
3.38563
3.4925
3.60137
3.71234
3.82549
3.9409
0.0294078
0.0889124
0.149028
0.209772
0.27116
0.333207
0.395926
0.459334
0.523446
0.588278
0.653847
0.720168
0.787261
0.855144
0.923834
0.993353
1.06372
1.13495
1.20708
1.28012
1.3541
1.42903
1.50496
1.58189
1.65987
1.73891
1.81906
1.90033
1.98276
2.06639
2.15125
2.23738
2.32481
2.41359
2.50375
2.59535
2.68842
2.78302
2.8792
2.97701
3.0765
3.17774
3.28079
3.38571
3.49257
3.60145
3.71242
3.82556
3.94095
0.0293803
0.0888607
0.148966
0.209705
0.271091
0.333136
0.395855
0.459263
0.523374
0.588206
0.653774
0.720096
0.787189
0.855072
0.923762
0.993281
1.06365
1.13488
1.20701
1.28005
1.35402
1.42896
1.50489
1.58182
1.6598
1.73884
1.81898
1.90026
1.98269
2.06632
2.15118
2.2373
2.32474
2.41351
2.50368
2.59528
2.68835
2.78295
2.87913
2.97694
3.07643
3.17767
3.28072
3.38564
3.4925
3.60138
3.71235
3.82549
3.9409
0.0294001
0.0888962
0.149007
0.209747
0.271133
0.333178
0.395896
0.459303
0.523414
0.588246
0.653814
0.720136
0.787228
0.855111
0.923801
0.99332
1.06369
1.13492
1.20705
1.28009
1.35406
1.429
1.50492
1.58186
1.65984
1.73888
1.81902
1.9003
1.98273
2.06636
2.15122
2.23734
2.32478
2.41355
2.50372
2.59532
2.68839
2.78299
2.87917
2.97698
3.07647
3.17771
3.28076
3.38568
3.49254
3.60142
3.71239
3.82553
3.94094
0.0293829
0.0888632
0.148966
0.209702
0.271085
0.333128
0.395846
0.459252
0.523362
0.588193
0.65376
0.720082
0.787174
0.855056
0.923746
0.993265
1.06363
1.13487
1.20699
1.28003
1.35401
1.42895
1.50487
1.5818
1.65978
1.73883
1.81897
1.90024
1.98267
2.0663
2.15116
2.23729
2.32472
2.4135
2.50366
2.59526
2.68833
2.78294
2.87911
2.97692
3.07642
3.17766
3.2807
3.38562
3.49249
3.60137
3.71234
3.82549
3.94091
0.0293923
0.0888793
0.148984
0.20972
0.271102
0.333144
0.39586
0.459265
0.523374
0.588204
0.653771
0.720092
0.787184
0.855065
0.923755
0.993273
1.06364
1.13487
1.207
1.28004
1.35402
1.42895
1.50488
1.58181
1.65979
1.73883
1.81898
1.90025
1.98268
2.06631
2.15117
2.2373
2.32473
2.41351
2.50367
2.59527
2.68834
2.78294
2.87912
2.97693
3.07643
3.17767
3.28071
3.38564
3.4925
3.60138
3.71236
3.82551
3.94092
0.0293856
0.0888656
0.148966
0.2097
0.27108
0.33312
0.395835
0.459239
0.523347
0.588176
0.653742
0.720062
0.787154
0.855035
0.923725
0.993242
1.06361
1.13484
1.20697
1.28001
1.35398
1.42892
1.50484
1.58178
1.65976
1.7388
1.81894
1.90022
1.98265
2.06628
2.15114
2.23726
2.3247
2.41347
2.50364
2.59524
2.68831
2.78291
2.87909
2.9769
3.07639
3.17764
3.28068
3.38561
3.49247
3.60136
3.71234
3.82549
3.94091
0.0293848
0.0888632
0.148962
0.209694
0.271072
0.333111
0.395824
0.459227
0.523335
0.588163
0.653729
0.720048
0.787139
0.85502
0.923709
0.993226
1.06359
1.13483
1.20695
1.27999
1.35397
1.4289
1.50483
1.58176
1.65974
1.73878
1.81893
1.9002
1.98263
2.06626
2.15112
2.23725
2.32468
2.41346
2.50362
2.59522
2.68829
2.7829
2.87907
2.97688
3.07638
3.17762
3.28067
3.38559
3.49246
3.60135
3.71233
3.82549
3.94091
0.0293884
0.0888684
0.148967
0.209697
0.271074
0.333112
0.395824
0.459226
0.523333
0.588161
0.653726
0.720045
0.787135
0.855016
0.923705
0.993222
1.06359
1.13482
1.20695
1.27999
1.35396
1.4289
1.50482
1.58176
1.65973
1.73878
1.81892
1.90019
1.98263
2.06625
2.15111
2.23724
2.32467
2.41345
2.50362
2.59521
2.68829
2.78289
2.87907
2.97688
3.07637
3.17762
3.28067
3.38559
3.49246
3.60135
3.71233
3.82549
3.94091
0.029376
0.088844
0.148936
0.209664
0.271039
0.333075
0.395787
0.459188
0.523294
0.588121
0.653686
0.720004
0.787095
0.854975
0.923664
0.993181
1.06355
1.13478
1.20691
1.27994
1.35392
1.42886
1.50478
1.58172
1.65969
1.73874
1.81888
1.90015
1.98258
2.06621
2.15107
2.2372
2.32463
2.41341
2.50357
2.59517
2.68825
2.78285
2.87903
2.97684
3.07633
3.17757
3.28063
3.38555
3.49242
3.60131
3.71229
3.82546
3.94089
0.0293897
0.0888692
0.148966
0.209695
0.271071
0.333107
0.395819
0.45922
0.523326
0.588153
0.653717
0.720036
0.787126
0.855006
0.923695
0.993212
1.06358
1.13481
1.20694
1.27998
1.35395
1.42889
1.50481
1.58175
1.65972
1.73877
1.81891
1.90018
1.98262
2.06624
2.1511
2.23723
2.32466
2.41344
2.5036
2.5952
2.68828
2.78288
2.87906
2.97687
3.07636
3.17761
3.28066
3.38558
3.49245
3.60134
3.71233
3.82549
3.94091
0.0293758
0.0888437
0.148936
0.209664
0.271039
0.333075
0.395787
0.459188
0.523294
0.588121
0.653686
0.720004
0.787095
0.854975
0.923664
0.993181
1.06355
1.13478
1.20691
1.27994
1.35392
1.42886
1.50478
1.58172
1.65969
1.73874
1.81888
1.90015
1.98258
2.06621
2.15107
2.2372
2.32463
2.41341
2.50357
2.59517
2.68825
2.78285
2.87903
2.97684
3.07633
3.17757
3.28063
3.38555
3.49242
3.60131
3.71229
3.82546
3.94089
0.0293883
0.0888683
0.148967
0.209698
0.271075
0.333112
0.395825
0.459227
0.523333
0.588161
0.653726
0.720045
0.787136
0.855016
0.923705
0.993222
1.06359
1.13482
1.20695
1.27999
1.35396
1.4289
1.50482
1.58176
1.65973
1.73878
1.81892
1.90019
1.98263
2.06625
2.15111
2.23724
2.32467
2.41345
2.50362
2.59521
2.68829
2.78289
2.87907
2.97688
3.07637
3.17762
3.28067
3.38559
3.49246
3.60135
3.71233
3.82549
3.94091
0.029385
0.0888635
0.148962
0.209694
0.271073
0.333111
0.395825
0.459228
0.523335
0.588164
0.653729
0.720049
0.78714
0.855021
0.92371
0.993227
1.06359
1.13483
1.20695
1.27999
1.35397
1.4289
1.50483
1.58176
1.65974
1.73878
1.81893
1.9002
1.98263
2.06626
2.15112
2.23725
2.32468
2.41346
2.50362
2.59522
2.68829
2.7829
2.87907
2.97688
3.07638
3.17762
3.28067
3.38559
3.49246
3.60135
3.71233
3.82549
3.94091
0.0293857
0.088866
0.148966
0.2097
0.27108
0.33312
0.395835
0.459239
0.523348
0.588177
0.653743
0.720063
0.787155
0.855036
0.923725
0.993243
1.06361
1.13484
1.20697
1.28001
1.35398
1.42892
1.50485
1.58178
1.65976
1.7388
1.81894
1.90022
1.98265
2.06628
2.15114
2.23726
2.3247
2.41347
2.50364
2.59524
2.68831
2.78291
2.87909
2.9769
3.07639
3.17764
3.28068
3.38561
3.49247
3.60136
3.71234
3.82549
3.94091
0.0293923
0.0888792
0.148984
0.20972
0.271102
0.333144
0.39586
0.459265
0.523375
0.588205
0.653771
0.720092
0.787184
0.855066
0.923756
0.993274
1.06364
1.13487
1.207
1.28004
1.35402
1.42895
1.50488
1.58181
1.65979
1.73883
1.81898
1.90025
1.98268
2.06631
2.15117
2.2373
2.32473
2.41351
2.50367
2.59527
2.68834
2.78294
2.87912
2.97693
3.07643
3.17767
3.28071
3.38564
3.4925
3.60138
3.71236
3.82551
3.94092
0.0293827
0.0888629
0.148966
0.209702
0.271085
0.333128
0.395845
0.459252
0.523362
0.588193
0.65376
0.720081
0.787174
0.855056
0.923746
0.993264
1.06363
1.13487
1.20699
1.28003
1.35401
1.42895
1.50487
1.5818
1.65978
1.73883
1.81897
1.90024
1.98267
2.0663
2.15116
2.23729
2.32472
2.4135
2.50366
2.59526
2.68833
2.78294
2.87911
2.97692
3.07642
3.17766
3.2807
3.38562
3.49249
3.60137
3.71234
3.82549
3.94091
0.0294001
0.0888961
0.149007
0.209747
0.271133
0.333178
0.395896
0.459303
0.523414
0.588246
0.653814
0.720135
0.787228
0.85511
0.923801
0.993319
1.06369
1.13492
1.20705
1.28009
1.35406
1.429
1.50492
1.58186
1.65984
1.73888
1.81902
1.9003
1.98273
2.06636
2.15122
2.23734
2.32478
2.41355
2.50372
2.59532
2.68839
2.78299
2.87917
2.97698
3.07647
3.17771
3.28076
3.38568
3.49254
3.60142
3.71239
3.82553
3.94094
0.0293804
0.0888609
0.148966
0.209705
0.27109
0.333136
0.395855
0.459262
0.523374
0.588206
0.653774
0.720096
0.787189
0.855071
0.923762
0.99328
1.06365
1.13488
1.20701
1.28005
1.35402
1.42896
1.50489
1.58182
1.6598
1.73884
1.81898
1.90026
1.98269
2.06632
2.15118
2.2373
2.32474
2.41351
2.50368
2.59528
2.68835
2.78295
2.87913
2.97694
3.07643
3.17767
3.28072
3.38564
3.4925
3.60138
3.71235
3.82549
3.9409
0.0294078
0.0889124
0.149028
0.209772
0.27116
0.333206
0.395926
0.459334
0.523446
0.588278
0.653846
0.720168
0.787261
0.855144
0.923834
0.993353
1.06372
1.13495
1.20708
1.28012
1.3541
1.42903
1.50496
1.58189
1.65987
1.73891
1.81906
1.90033
1.98276
2.06639
2.15125
2.23738
2.32481
2.41359
2.50375
2.59535
2.68842
2.78302
2.8792
2.97701
3.0765
3.17774
3.28079
3.38571
3.49257
3.60145
3.71242
3.82556
3.94095
0.0293771
0.0888562
0.148961
0.209701
0.271087
0.333133
0.395852
0.45926
0.523371
0.588203
0.653771
0.720092
0.787185
0.855067
0.923757
0.993276
1.06364
1.13488
1.207
1.28004
1.35402
1.42896
1.50488
1.58182
1.65979
1.73884
1.81898
1.90025
1.98268
2.06631
2.15117
2.2373
2.32473
2.41351
2.50367
2.59527
2.68835
2.78295
2.87912
2.97693
3.07643
3.17767
3.28071
3.38563
3.4925
3.60137
3.71234
3.82549
3.9409
0.0294137
0.0889233
0.149041
0.209785
0.271172
0.333217
0.395936
0.459342
0.523453
0.588284
0.653851
0.720172
0.787264
0.855146
0.923836
0.993354
1.06372
1.13495
1.20708
1.28012
1.3541
1.42903
1.50496
1.58189
1.65987
1.73891
1.81906
1.90033
1.98276
2.06639
2.15125
2.23738
2.32481
2.41359
2.50375
2.59535
2.68842
2.78302
2.8792
2.97701
3.0765
3.17775
3.28079
3.38571
3.49258
3.60146
3.71243
3.82557
3.94096
0.0293714
0.0888434
0.148943
0.209679
0.271061
0.333102
0.395818
0.459223
0.523331
0.588161
0.653727
0.720047
0.787138
0.855019
0.923709
0.993226
1.06359
1.13483
1.20695
1.27999
1.35397
1.4289
1.50483
1.58176
1.65974
1.73878
1.81893
1.9002
1.98263
2.06626
2.15112
2.23725
2.32468
2.41346
2.50362
2.59522
2.68829
2.7829
2.87907
2.97688
3.07638
3.17762
3.28067
3.38559
3.49246
3.60134
3.71232
3.82547
3.94089
0.0294147
0.0889195
0.14903
0.209766
0.271146
0.333185
0.395898
0.4593
0.523407
0.588234
0.653799
0.720118
0.787208
0.855089
0.923778
0.993295
1.06366
1.13489
1.20702
1.28006
1.35404
1.42897
1.5049
1.58183
1.65981
1.73885
1.81899
1.90027
1.9827
2.06633
2.15119
2.23731
2.32475
2.41352
2.50369
2.59529
2.68836
2.78296
2.87914
2.97695
3.07645
3.17769
3.28074
3.38566
3.49253
3.60142
3.7124
3.82556
3.94096
0.029356
0.088804
0.148885
0.209605
0.270975
0.333008
0.395717
0.459115
0.52322
0.588046
0.653609
0.719927
0.787017
0.854897
0.923585
0.993102
1.06347
1.1347
1.20683
1.27987
1.35384
1.42878
1.5047
1.58164
1.65961
1.73866
1.8188
1.90007
1.98251
2.06614
2.15099
2.23712
2.32455
2.41333
2.5035
2.59509
2.68817
2.78277
2.87895
2.97676
3.07625
3.1775
3.28055
3.38548
3.49235
3.60124
3.71223
3.8254
3.94086
0.0293876
0.0888569
0.148942
0.209662
0.271029
0.333058
0.395764
0.459161
0.523264
0.588089
0.653652
0.719969
0.787058
0.854938
0.923626
0.993143
1.06351
1.13474
1.20687
1.27991
1.35388
1.42882
1.50474
1.58168
1.65966
1.7387
1.81884
1.90011
1.98255
2.06618
2.15104
2.23716
2.32459
2.41337
2.50354
2.59513
2.68821
2.78281
2.87899
2.9768
3.0763
3.17754
3.28059
3.38552
3.49239
3.60129
3.71228
3.82546
3.94091
0.0293606
0.0888024
0.148874
0.209585
0.270949
0.332976
0.395681
0.459078
0.52318
0.588005
0.653568
0.719886
0.786975
0.854855
0.923544
0.993061
1.06343
1.13466
1.20679
1.27983
1.3538
1.42874
1.50466
1.5816
1.65957
1.73862
1.81876
1.90003
1.98247
2.0661
2.15095
2.23708
2.32451
2.41329
2.50346
2.59505
2.68813
2.78273
2.87891
2.97672
3.07621
3.17746
3.28051
3.38543
3.49231
3.6012
3.7122
3.82539
3.94086
0.0293448
0.0887771
0.148848
0.209562
0.270928
0.332959
0.395666
0.459065
0.52317
0.587996
0.65356
0.719878
0.786969
0.854849
0.923539
0.993056
1.06342
1.13466
1.20678
1.27982
1.3538
1.42874
1.50466
1.58159
1.65957
1.73862
1.81876
1.90003
1.98246
2.06609
2.15095
2.23708
2.32451
2.41329
2.50345
2.59505
2.68812
2.78273
2.8789
2.97671
3.07621
3.17745
3.2805
3.38543
3.4923
3.60119
3.71218
3.82536
3.94084
0.0294209
0.0889298
0.149041
0.209778
0.271159
0.333198
0.395913
0.459316
0.523424
0.588253
0.653819
0.720139
0.787231
0.855112
0.923803
0.993321
1.06369
1.13492
1.20705
1.28009
1.35406
1.429
1.50493
1.58186
1.65984
1.73888
1.81903
1.9003
1.98273
2.06636
2.15122
2.23735
2.32478
2.41355
2.50372
2.59532
2.68839
2.78299
2.87917
2.97698
3.07647
3.17771
3.28076
3.38568
3.49255
3.60144
3.71241
3.82557
3.94097
0.0293643
0.0888341
0.148936
0.209675
0.271061
0.333107
0.395826
0.459234
0.523346
0.588177
0.653746
0.720068
0.787161
0.855044
0.923735
0.993253
1.06362
1.13486
1.20698
1.28002
1.354
1.42894
1.50486
1.5818
1.65977
1.73882
1.81896
1.90023
1.98267
2.0663
2.15115
2.23728
2.32471
2.41349
2.50365
2.59525
2.68833
2.78293
2.8791
2.97691
3.0764
3.17764
3.28069
3.38561
3.49247
3.60135
3.71232
3.82546
3.94088
0.0294391
0.0889776
0.149113
0.20987
0.271267
0.33332
0.396044
0.459456
0.523571
0.588405
0.653975
0.720299
0.787393
0.855277
0.923968
0.993488
1.06386
1.13509
1.20722
1.28026
1.35424
1.42917
1.5051
1.58203
1.66001
1.73906
1.8192
1.90047
1.9829
2.06653
2.15139
2.23752
2.32495
2.41373
2.50389
2.59549
2.68856
2.78316
2.87934
2.97714
3.07664
3.17788
3.28092
3.38584
3.4927
3.60157
3.71253
3.82565
3.941
0.0293691
0.0888512
0.148966
0.209716
0.271112
0.333165
0.395891
0.459304
0.52342
0.588256
0.653827
0.720151
0.787247
0.855131
0.923823
0.993343
1.06371
1.13495
1.20707
1.28011
1.35409
1.42903
1.50495
1.58189
1.65987
1.73891
1.81906
1.90033
1.98276
2.06639
2.15125
2.23737
2.32481
2.41358
2.50375
2.59534
2.68842
2.78302
2.87919
2.977
3.07649
3.17773
3.28077
3.38569
3.49255
3.60141
3.71237
3.8255
3.94089
0.0294461
0.0889931
0.149134
0.209895
0.271295
0.33335
0.396076
0.459489
0.523605
0.58844
0.654012
0.720336
0.787431
0.855316
0.924008
0.993528
1.0639
1.13513
1.20726
1.2803
1.35428
1.42922
1.50514
1.58208
1.66005
1.7391
1.81924
1.90051
1.98295
2.06658
2.15144
2.23756
2.32499
2.41377
2.50393
2.59553
2.6886
2.7832
2.87938
2.97719
3.07668
3.17791
3.28096
3.38587
3.49273
3.6016
3.71256
3.82567
3.94102
0.0293632
0.0888362
0.148943
0.209686
0.271076
0.333125
0.395847
0.459258
0.523372
0.588206
0.653776
0.7201
0.787194
0.855078
0.923771
0.993291
1.06366
1.1349
1.20702
1.28006
1.35404
1.42898
1.5049
1.58184
1.65982
1.73886
1.81901
1.90028
1.98271
2.06634
2.1512
2.23732
2.32476
2.41353
2.5037
2.59529
2.68837
2.78297
2.87914
2.97695
3.07644
3.17768
3.28072
3.38564
3.4925
3.60137
3.71233
3.82547
3.94088
0.0294379
0.0889646
0.149086
0.20983
0.271215
0.333259
0.395977
0.459383
0.523495
0.588326
0.653895
0.720218
0.787312
0.855196
0.923887
0.993407
1.06378
1.13501
1.20714
1.28018
1.35416
1.4291
1.50502
1.58196
1.65993
1.73898
1.81912
1.90039
1.98283
2.06646
2.15132
2.23744
2.32487
2.41365
2.50381
2.59541
2.68848
2.78308
2.87926
2.97706
3.07656
3.17779
3.28084
3.38576
3.49262
3.6015
3.71247
3.82562
3.941
0.029332
0.0887527
0.148819
0.209533
0.270901
0.332935
0.395646
0.459048
0.523156
0.587986
0.653554
0.719876
0.786969
0.854852
0.923544
0.993064
1.06343
1.13467
1.2068
1.27984
1.35381
1.42875
1.50468
1.58161
1.65959
1.73864
1.81878
1.90005
1.98248
2.06611
2.15097
2.2371
2.32453
2.41331
2.50347
2.59507
2.68814
2.78274
2.87891
2.97672
3.07621
3.17745
3.2805
3.38542
3.49228
3.60117
3.71215
3.82533
3.94082
0.0293519
0.0887866
0.148857
0.20957
0.270937
0.332969
0.395679
0.45908
0.523188
0.588017
0.653584
0.719906
0.786999
0.854882
0.923574
0.993094
1.06346
1.1347
1.20683
1.27987
1.35384
1.42878
1.50471
1.58164
1.65962
1.73867
1.81881
1.90008
1.98252
2.06614
2.151
2.23713
2.32456
2.41334
2.5035
2.5951
2.68817
2.78277
2.87895
2.97675
3.07624
3.17748
3.28053
3.38545
3.49231
3.6012
3.71219
3.82537
3.94085
0.0294063
0.0888972
0.148997
0.209727
0.271104
0.333142
0.395855
0.459259
0.523369
0.588199
0.653767
0.720089
0.787183
0.855066
0.923758
0.993278
1.06365
1.13488
1.20701
1.28005
1.35403
1.42897
1.50489
1.58183
1.65981
1.73885
1.81899
1.90027
1.9827
2.06633
2.15119
2.23731
2.32475
2.41352
2.50369
2.59528
2.68835
2.78295
2.87913
2.97694
3.07643
3.17767
3.28071
3.38563
3.4925
3.60138
3.71236
3.82552
3.94094
0.0293498
0.0888027
0.148895
0.209628
0.27101
0.333054
0.395772
0.459179
0.523292
0.588124
0.653694
0.720017
0.787111
0.854995
0.923687
0.993208
1.06358
1.13481
1.20694
1.27998
1.35396
1.4289
1.50482
1.58176
1.65974
1.73878
1.81892
1.9002
1.98263
2.06626
2.15112
2.23724
2.32468
2.41345
2.50362
2.59521
2.68828
2.78288
2.87906
2.97687
3.07636
3.17759
3.28064
3.38556
3.49242
3.6013
3.71227
3.82542
3.94085
0.0294524
0.0890026
0.149143
0.209902
0.271299
0.333353
0.396077
0.459489
0.523604
0.588439
0.65401
0.720334
0.787429
0.855314
0.924006
0.993527
1.06389
1.13513
1.20726
1.2803
1.35428
1.42922
1.50514
1.58208
1.66006
1.7391
1.81924
1.90052
1.98295
2.06658
2.15144
2.23756
2.325
2.41377
2.50394
2.59553
2.6886
2.7832
2.87938
2.97718
3.07668
3.17791
3.28096
3.38587
3.49273
3.6016
3.71256
3.82568
3.94103
0.0293649
0.088846
0.148962
0.209713
0.27111
0.333165
0.395891
0.459305
0.523421
0.588257
0.653829
0.720153
0.787249
0.855134
0.923827
0.993347
1.06372
1.13495
1.20708
1.28012
1.3541
1.42904
1.50496
1.5819
1.65988
1.73892
1.81907
1.90034
1.98277
2.0664
2.15126
2.23738
2.32482
2.41359
2.50376
2.59535
2.68843
2.78302
2.8792
2.977
3.0765
3.17773
3.28078
3.38569
3.49255
3.60141
3.71237
3.8255
3.94088
0.0294584
0.0890181
0.149166
0.209931
0.271332
0.333388
0.396115
0.459528
0.523644
0.588479
0.654051
0.720375
0.787471
0.855355
0.924048
0.993568
1.06394
1.13517
1.2073
1.28034
1.35432
1.42926
1.50518
1.58212
1.6601
1.73914
1.81929
1.90056
1.98299
2.06662
2.15148
2.23761
2.32504
2.41381
2.50398
2.59557
2.68865
2.78325
2.87942
2.97723
3.07672
3.17795
3.281
3.38591
3.49277
3.60164
3.71259
3.82571
3.94104
0.0293585
0.0888279
0.148933
0.209675
0.271064
0.333112
0.395833
0.459243
0.523356
0.58819
0.65376
0.720083
0.787178
0.855062
0.923754
0.993275
1.06364
1.13488
1.20701
1.28005
1.35403
1.42896
1.50489
1.58183
1.6598
1.73885
1.81899
1.90026
1.9827
2.06633
2.15119
2.23731
2.32474
2.41352
2.50368
2.59528
2.68835
2.78295
2.87913
2.97693
3.07642
3.17766
3.28071
3.38562
3.49248
3.60136
3.71232
3.82546
3.94087
0.0294413
0.0889674
0.149086
0.209826
0.271207
0.333248
0.395964
0.459368
0.523478
0.588309
0.653877
0.7202
0.787293
0.855177
0.923869
0.993388
1.06376
1.13499
1.20712
1.28016
1.35414
1.42908
1.505
1.58194
1.65992
1.73896
1.81911
1.90038
1.98281
2.06644
2.1513
2.23742
2.32486
2.41363
2.5038
2.59539
2.68847
2.78306
2.87924
2.97705
3.07654
3.17778
3.28082
3.38574
3.4926
3.60149
3.71246
3.82561
3.941
0.0293174
0.0887165
0.148768
0.209471
0.270832
0.33286
0.395568
0.458968
0.523075
0.587903
0.65347
0.719791
0.786884
0.854767
0.923459
0.992979
1.06335
1.13458
1.20671
1.27975
1.35373
1.42867
1.50459
1.58153
1.65951
1.73855
1.8187
1.89997
1.9824
2.06603
2.15089
2.23701
2.32445
2.41322
2.50339
2.59498
2.68806
2.78265
2.87883
2.97664
3.07613
3.17737
3.28041
3.38533
3.4922
3.60109
3.71208
3.82528
3.94079
0.0293172
0.0887163
0.148767
0.209471
0.270832
0.33286
0.395568
0.458967
0.523074
0.587902
0.653469
0.71979
0.786883
0.854765
0.923457
0.992976
1.06334
1.13458
1.20671
1.27975
1.35373
1.42867
1.50459
1.58153
1.6595
1.73855
1.81869
1.89996
1.9824
2.06603
2.15088
2.23701
2.32444
2.41322
2.50338
2.59498
2.68805
2.78265
2.87883
2.97663
3.07613
3.17736
3.28041
3.38533
3.4922
3.60109
3.71208
3.82528
3.94079
0.0294413
0.0889672
0.149086
0.209825
0.271207
0.333248
0.395963
0.459368
0.523477
0.588308
0.653876
0.720198
0.787291
0.855174
0.923866
0.993386
1.06375
1.13499
1.20712
1.28016
1.35414
1.42908
1.505
1.58194
1.65991
1.73896
1.8191
1.90037
1.98281
2.06644
2.1513
2.23742
2.32485
2.41363
2.50379
2.59539
2.68846
2.78306
2.87924
2.97704
3.07654
3.17777
3.28082
3.38574
3.4926
3.60148
3.71246
3.82561
3.941
0.0293586
0.0888281
0.148933
0.209675
0.271064
0.333112
0.395833
0.459242
0.523356
0.588189
0.653759
0.720082
0.787177
0.85506
0.923753
0.993273
1.06364
1.13488
1.20701
1.28005
1.35402
1.42896
1.50489
1.58182
1.6598
1.73885
1.81899
1.90026
1.9827
2.06632
2.15118
2.23731
2.32474
2.41352
2.50368
2.59528
2.68835
2.78295
2.87913
2.97693
3.07642
3.17766
3.2807
3.38562
3.49248
3.60136
3.71232
3.82546
3.94087
0.0294584
0.0890183
0.149166
0.209931
0.271332
0.333388
0.396115
0.459528
0.523644
0.588479
0.65405
0.720374
0.78747
0.855354
0.924047
0.993567
1.06394
1.13517