/*--------------------------------*- C++ -*----------------------------------*\
  =========                 |
  \\      /  F ield         | OpenFOAM: The Open Source CFD Toolbox
   \\    /   O peration     | Website:  https://openfoam.org
    \\  /    A nd           | Version:  6
     \\/     M anipulation  |
\*---------------------------------------------------------------------------*/
FoamFile
{
    version     2.0;
    format      ascii;
    class       volScalarField;
    location    "30";
    object      gradTz;
}
// * * * * * * * * * * * * * * * * * * * * * * * * * * * * * * * * * * * * * //

dimensions      [0 -1 0 1 0 0 0];

internalField   nonuniform List<scalar> 
13524
(
0
-1.16323e-17
0
1.40134e-17
0
-4.55122e-17
-1.45444e-16
1.19405e-16
-1.93916e-16
2.94102e-16
-2.7384e-16
-2.20253e-16
4.07436e-16
-2.45663e-16
-4.30064e-16
-9.75467e-17
3.19039e-16
-8.91188e-17
-1.91935e-16
-1.0308e-16
0
3.66754e-16
-2.26389e-16
-6.58018e-16
-2.85495e-16
-1.51618e-16
-9.79265e-16
4.96585e-16
1.80344e-16
0
-2.01468e-16
-2.12666e-16
0
2.36551e-16
2.49253e-16
7.96916e-16
-5.431e-16
5.91646e-16
-9.07469e-16
0
0
0
-3.73692e-16
2.35689e-20
0
2.38206e-20
0
4.78897e-16
5.18414e-16
3.26435e-17
4.29975e-17
-5.31984e-17
0
1.00088e-16
-3.71047e-17
1.72908e-16
-2.56848e-16
1.75838e-16
4.2011e-17
9.44673e-17
5.26323e-17
0
6.39765e-17
6.99323e-17
1.52226e-16
0
1.78249e-16
9.59755e-17
-2.18156e-16
5.40261e-16
6.03053e-16
-7.5637e-16
6.58158e-16
-2.992e-16
5.92778e-16
1.60825e-16
-6.96469e-16
7.06504e-16
5.87849e-16
-7.98203e-16
8.50984e-16
-6.6475e-16
8.88606e-18
-9.97269e-16
-9.2141e-18
0
-1.17332e-15
6.01639e-16
0
-3.3825e-16
0
-1.66446e-20
-7.85455e-16
0
-4.3366e-16
0
-4.78897e-16
-5.40792e-21
2.87723e-17
-3.68201e-17
-9.86385e-18
0
-1.83321e-17
-4.5546e-17
-2.73527e-17
1.37293e-16
-1.87547e-17
-1.58817e-16
-4.72373e-17
-5.26305e-17
0
-6.39744e-17
0
-7.6116e-17
-8.25153e-17
-8.91275e-17
0
-1.03089e-16
-5.64502e-16
4.59983e-16
-1.26012e-16
-5.5017e-16
-3.12549e-16
7.44358e-16
0
-1.7041e-16
-1.80352e-16
1.90703e-16
-6.12502e-16
4.17207e-16
-2.32958e-16
1.18295e-15
-7.38815e-16
-2.71941e-16
-1.92922e-17
8.62533e-16
3.05907e-16
0
1.02587e-15
-6.99798e-16
1.13306e-15
-3.80576e-16
0
0
9.25326e-16
-9.43649e-16
1.525e-15
0
0
5.74252e-17
-4.80606e-17
1.83385e-17
-7.69556e-17
1.00822e-16
1.6947e-16
5.5198e-17
-1.58905e-16
4.72476e-17
0
5.8218e-17
0
-2.90394e-16
3.70042e-16
-2.58674e-16
4.34571e-16
0
0
1.10468e-16
0
1.26026e-16
-1.34247e-16
-4.42011e-16
7.44496e-16
-1.60849e-16
-3.38697e-21
0
1.90721e-16
-2.09601e-16
6.29988e-16
0
-2.36578e-16
-2.4928e-16
2.62534e-16
2.86144e-16
-5.71812e-16
-3.0593e-16
-9.75994e-16
1.69162e-15
-6.99886e-16
-1.13318e-15
1.16614e-15
4.12718e-16
0
4.5573e-16
4.78916e-16
-5.03324e-16
0
0
-9.86741e-18
6.43452e-17
-8.33711e-17
9.96668e-17
-1.00756e-16
-1.69401e-16
1.01864e-16
1.77466e-16
-2.2674e-16
0
1.84673e-16
-2.45763e-16
0
-3.91398e-16
6.60251e-16
-4.34484e-16
-3.9558e-16
2.97522e-16
3.43606e-16
-5.78102e-16
3.9094e-16
-3.89659e-16
0
-7.72151e-16
7.90036e-16
1.70412e-16
0
-1.90713e-16
-2.01486e-16
-2.12703e-16
0
2.36569e-16
-5.0766e-16
2.53261e-16
8.38806e-16
-5.71743e-16
3.05918e-16
3.21716e-16
-3.3825e-16
0
1.13308e-15
-1.16604e-15
-4.12701e-16
4.4705e-16
-4.28204e-16
-1.42255e-15
5.03304e-16
0
0
4.75504e-17
-4.80535e-17
0
2.27728e-17
-1.18242e-16
1.19548e-16
-1.57118e-16
1.58893e-16
-1.98613e-16
2.00909e-16
5.82113e-17
0
0
0
-2.58665e-16
-1.11652e-16
7.29013e-17
7.94199e-17
4.29849e-16
7.21216e-16
-3.65422e-16
6.84512e-16
-4.14988e-16
0
0
1.7041e-16
1.80361e-16
-1.90712e-16
0
6.46471e-16
-2.16002e-16
-4.8203e-16
4.80453e-16
5.15841e-16
2.76361e-16
5.91739e-16
-6.01684e-16
3.21719e-16
3.38253e-16
0
7.59446e-16
-3.80642e-16
-8.38356e-16
1.28801e-15
0
-4.93429e-16
2.01371e-15
-1.90484e-18
5.82061e-18
-4.748e-17
4.79825e-17
0
-4.55373e-17
2.7347e-17
0
0
-1.7743e-16
1.32227e-16
0
-9.08378e-21
0
-6.9935e-17
3.15235e-16
-6.0543e-17
-6.24003e-16
3.72443e-16
-4.2426e-16
8.61519e-17
8.2677e-16
-6.17337e-16
-1.34236e-16
4.4188e-16
-4.41093e-16
6.57698e-16
2.9349e-17
-8.86763e-16
7.70639e-16
-3.95002e-16
-2.12697e-16
2.32943e-16
-4.64416e-16
-1.24661e-20
0
-1.28673e-20
-2.90794e-16
0
-3.21711e-16
3.49373e-16
-1.06689e-15
3.61978e-16
-3.92729e-16
-8.38263e-16
8.5423e-16
9.2532e-16
-1.42254e-15
0
1.90488e-18
-5.2117e-22
4.75078e-17
-4.80106e-17
0
2.27656e-17
-2.73475e-17
-1.373e-16
1.38834e-16
0
2.45774e-16
-2.00837e-16
-3.01079e-16
2.45751e-16
6.99365e-17
0
8.24993e-17
3.67856e-16
-8.64034e-16
4.00611e-16
-5.64511e-16
9.4493e-16
-1.00831e-15
5.23895e-16
0
4.6889e-16
-1.1261e-15
4.96667e-16
-3.6833e-16
1.83007e-16
0
-2.12685e-16
0
0
-7.56924e-16
1.05026e-15
-8.19506e-16
6.07661e-21
0
3.21698e-16
-6.87648e-16
6.99812e-16
7.47387e-16
0
4.12686e-16
0
4.55703e-16
0
-7.54879e-18
0
-5.82021e-18
-4.74684e-17
1.12276e-16
-6.49927e-17
0
0
0
0
0
0
0
0
2.66133e-16
-2.6932e-16
-3.15206e-16
-1.04468e-16
-2.25182e-17
3.72424e-16
0
0
0
0
0
-5.84621e-16
-2.7763e-17
4.68301e-16
0
3.68296e-16
1.55504e-17
-3.94989e-16
6.46369e-16
-4.40305e-16
4.81943e-16
-9.97162e-16
5.15751e-16
-5.62414e-16
2.70858e-16
6.0159e-16
3.32461e-16
-6.65536e-16
-3.55546e-16
-3.7369e-16
0
-1.66362e-15
-2.64785e-17
4.42101e-16
0
-5.03313e-16
1.3421e-17
-2.13064e-17
-9.86024e-18
1.40272e-17
0
-2.27652e-17
-9.07724e-17
8.73464e-17
0
-4.20138e-17
4.72313e-17
-5.26245e-17
-5.82008e-17
2.6612e-16
-3.39242e-16
-3.91303e-16
2.36559e-16
0
-9.5978e-17
-1.03083e-16
1.10447e-16
-6.02939e-16
1.00815e-15
-1.07934e-16
1.69771e-16
-1.23857e-16
-9.57932e-16
8.52056e-16
-9.01811e-16
1.82965e-16
-2.01469e-16
-4.33673e-16
2.15922e-16
2.45379e-16
-2.40267e-16
-7.96925e-16
5.43108e-16
-8.82428e-16
9.07477e-16
-3.217e-16
-3.38233e-16
0
0
4.05113e-16
-8.12762e-16
0
0
4.86127e-16
-4.95948e-16
1.91792e-17
-4.09094e-17
5.12553e-17
-7.84039e-17
8.33983e-17
2.27654e-17
-5.47014e-17
2.01499e-16
-2.95955e-16
2.42897e-16
-4.72317e-17
1.05258e-16
3.01116e-16
-3.09766e-16
3.60278e-16
-2.17751e-16
4.23642e-16
-2.56246e-16
9.59788e-17
5.27415e-16
-6.50712e-16
1.18085e-16
1.26016e-16
6.84454e-16
-5.57704e-16
7.72176e-16
-6.29233e-16
-1.70397e-16
1.80347e-16
1.90698e-16
2.01471e-16
0
-8.61273e-18
7.01017e-16
-2.49256e-16
-2.71984e-16
5.43184e-16
5.81607e-16
3.16362e-16
1.05148e-17
3.38236e-16
0
3.73707e-16
3.92722e-16
1.25102e-15
-4.2062e-16
9.25385e-16
-1.42987e-15
4.95981e-16
-1.90626e-18
0
3.76294e-17
-4.79961e-17
-1.83326e-17
0
2.73533e-17
-6.41734e-17
0
-4.20207e-17
0
-5.26314e-17
0
3.30157e-16
-6.29614e-16
2.93817e-16
0
-8.91282e-17
0
0
5.64503e-16
-3.41889e-16
-6.42952e-16
5.23879e-16
-1.42765e-16
0
0
-3.48203e-16
-1.51055e-17
-1.55498e-17
3.95011e-16
0
-2.24378e-16
0
0
5.34452e-16
-5.43142e-16
-2.908e-16
-6.22221e-16
3.11152e-16
0
0
-3.73695e-16
-7.97863e-16
1.22547e-15
-4.3366e-16
0
-4.86128e-16
4.95949e-16
0
-5.82543e-18
4.75478e-17
-1.12447e-16
-1.66947e-17
1.0544e-16
9.08814e-17
-8.74575e-17
-3.69785e-17
-4.20277e-17
0
-5.26391e-17
0
0
-1.99483e-21
0
2.58657e-16
-4.34551e-16
-9.59943e-17
-5.27467e-16
4.29844e-16
-1.18099e-16
3.91012e-16
-6.58217e-16
-2.92383e-16
1.44777e-16
-4.89754e-16
1.6316e-16
0
-3.89299e-16
-1.60146e-17
4.17263e-16
-4.57393e-16
2.27912e-16
0
0
2.76364e-16
0
-9.28212e-16
1.28717e-15
-1.69158e-15
3.44297e-16
7.59438e-16
-1.57131e-15
1.23849e-15
-1.288e-15
0
-4.78908e-16
7.54119e-18
0
1.165e-17
0
1.40343e-17
0
-2.27755e-17
-6.34702e-17
2.56799e-16
-1.01865e-16
4.20263e-17
0
-1.67711e-16
4.65811e-16
-5.11956e-16
3.39332e-16
0
1.65029e-16
8.91344e-17
4.91566e-16
1.26775e-16
-4.29769e-16
0
2.52035e-16
2.68475e-16
2.92341e-16
1.65514e-16
1.75111e-16
3.55495e-16
-5.33576e-16
0
2.0148e-16
-2.12697e-16
2.24383e-16
2.36565e-16
0
2.62517e-16
-2.76355e-16
2.90805e-16
3.05913e-16
0
6.76488e-16
-3.67102e-16
7.35682e-16
0
0
8.74024e-16
-4.48908e-16
9.65019e-16
7.3518e-18
-1.90639e-18
-5.8249e-18
-9.86503e-18
-1.35107e-21
-1.83343e-17
-1.22484e-16
7.3443e-17
0
1.94081e-16
-2.33927e-17
-2.26782e-16
1.67763e-16
-2.22976e-16
-6.39785e-17
0
-7.61203e-17
-1.65029e-16
0
-4.91621e-16
9.28118e-16
-5.40286e-16
0
-2.52036e-16
-1.3424e-16
-1.4277e-16
1.58656e-16
-4.75466e-16
-1.70411e-16
1.80362e-16
-1.90709e-16
-4.32861e-21
4.39102e-21
-4.48774e-16
-7.18578e-16
4.89604e-16
-5.25045e-16
2.86131e-16
-1.15341e-15
-9.28192e-16
6.32914e-16
3.49432e-16
2.28586e-17
-7.35737e-16
0
-4.19168e-16
-1.32364e-17
9.11634e-16
-4.71856e-16
-5.10856e-16
-1.53401e-17
-1.56665e-17
9.87109e-17
-6.20267e-17
3.66641e-17
4.15737e-21
0
1.6937e-16
-1.75796e-16
4.20226e-17
4.72401e-17
1.05261e-16
0
1.27948e-16
6.99375e-17
-1.63014e-16
4.01623e-16
8.91232e-17
9.59864e-17
4.2426e-16
-4.29734e-16
0
-6.44368e-18
2.61933e-16
-1.4956e-16
1.37747e-16
6.3624e-16
0
1.80346e-16
7.70638e-16
-1.20897e-15
6.29892e-16
4.48751e-16
2.3656e-16
-2.58389e-16
1.04078e-15
2.7635e-16
5.81596e-16
9.28121e-16
-9.65322e-16
6.65548e-16
-3.67101e-16
7.35667e-16
3.92716e-16
0
4.33655e-16
-4.62659e-16
4.71821e-16
0
1.90578e-18
0
-9.86258e-18
-6.43614e-17
4.67192e-17
2.27689e-17
0
-3.20823e-17
0
0
0
1.67721e-16
-2.22927e-16
2.02225e-16
-4.90107e-17
-3.69945e-16
0
-8.91248e-17
0
-3.15234e-16
3.25336e-16
0
-1.26008e-16
0
2.92343e-16
-2.96375e-16
1.68038e-16
1.46801e-17
-5.33572e-16
-1.907e-16
2.01472e-16
0
-2.24375e-16
0
-1.00193e-20
2.71956e-16
1.92926e-17
-2.70863e-16
-6.01626e-16
-3.21703e-16
3.38226e-16
-3.55551e-16
0
-3.92723e-16
-4.12681e-16
-8.67316e-16
-4.62679e-16
-7.0465e-18
0
1.90319e-18
0
0
6.43012e-17
-6.49889e-17
0
0
0
1.20036e-16
-1.58764e-16
1.98477e-16
-2.00771e-16
0
-2.66116e-16
5.59534e-16
-2.93749e-16
3.41022e-16
2.25172e-17
-3.72402e-16
2.12103e-16
1.21474e-17
-2.29955e-16
0
2.75047e-16
-2.78789e-16
3.10208e-16
-3.14546e-16
0
0
0
-2.01449e-16
0
0
0
-2.49245e-16
0
0
0
-6.22178e-16
6.32813e-16
-3.38224e-16
-3.61306e-16
7.41484e-16
0
4.12678e-16
4.3365e-16
0
4.78885e-16
0
-1.72395e-17
-1.5659e-17
3.14804e-17
6.4307e-17
-1.46675e-16
8.25637e-17
1.18127e-16
-1.19432e-16
3.6954e-17
0
1.98479e-16
-2.00773e-16
0
-2.0216e-16
2.69305e-16
-7.60988e-17
-1.70512e-16
1.7263e-16
0
0
0
0
2.58433e-16
-2.61902e-16
-1.49551e-16
2.96327e-16
0
-3.48163e-16
3.53172e-16
-3.89204e-16
5.9642e-16
0
4.57293e-16
-4.64383e-16
5.07608e-16
-7.8765e-16
1.10549e-15
-5.71688e-16
-3.11089e-16
3.16407e-16
3.43792e-16
-3.49877e-16
-3.73668e-16
-3.98913e-16
4.0637e-16
0
0
4.7888e-16
0
-1.72513e-17
2.13253e-17
0
-7.83518e-17
6.5016e-17
0
-1.45492e-16
1.19456e-16
0
1.77418e-16
-1.79446e-16
-2.20298e-16
1.64682e-16
-6.3958e-17
1.45129e-16
1.62918e-16
-2.42033e-16
0
9.59673e-17
-1.03072e-16
1.10436e-16
0
-1.25993e-16
1.34213e-16
2.92311e-16
-2.96341e-16
4.89646e-16
-5.11293e-16
3.53187e-16
3.89219e-16
-1.93531e-16
-2.12672e-16
0
2.36537e-16
-2.49238e-16
5.34428e-16
-5.43116e-16
-2.90779e-16
3.05885e-16
3.21684e-16
3.43801e-16
5.64511e-18
7.53347e-16
6.06463e-18
-4.19128e-16
-4.46884e-16
9.04591e-16
-4.7888e-16
1.01415e-15
1.9044e-18
-2.9086e-18
-4.93013e-18
8.53495e-17
1.66872e-17
1.70505e-17
4.4767e-17
-1.03402e-16
0
-6.7696e-17
8.97155e-17
2.63106e-17
1.79601e-16
-2.55909e-16
1.69622e-16
-2.33697e-16
2.42023e-16
1.83892e-16
-3.30157e-16
3.15177e-16
-3.25278e-16
-2.42425e-16
3.71628e-16
-1.34211e-16
-1.42744e-16
2.34405e-16
-4.7536e-16
1.77785e-16
-3.53174e-16
3.89206e-16
-5.96424e-16
2.12669e-16
0
-2.36533e-16
-2.58374e-16
2.53243e-16
0
4.41195e-16
-6.06664e-16
-3.21679e-16
-3.43791e-16
-5.64968e-18
-3.7367e-16
6.21488e-18
-1.03182e-15
1.30108e-15
-1.59506e-15
-1.43111e-17
-2.58999e-16
0
2.53677e-17
-3.15172e-17
-7.0136e-18
-9.1649e-18
-1.11055e-16
1.0076e-16
-1.69386e-16
1.20357e-16
-2.10059e-17
-2.36166e-17
-5.26239e-17
1.21438e-16
-9.08907e-17
2.34148e-21
1.57629e-16
-1.59563e-16
1.83924e-16
1.07519e-16
-1.48759e-16
0
0
6.3002e-17
2.75085e-16
-2.78827e-16
1.51615e-16
0
0
9.01716e-17
2.93898e-16
-3.95011e-16
0
1.12185e-16
0
-1.24625e-16
0
2.81218e-16
4.92219e-18
0
-3.27091e-16
1.63665e-16
3.6133e-16
1.18454e-17
-1.90295e-16
-6.46115e-18
4.27125e-16
-2.69881e-21
2.39444e-16
2.5165e-16
-9.52862e-19
2.91125e-18
-1.91625e-22
0
-4.08558e-17
5.26808e-17
0
1.60401e-17
-8.23387e-22
-2.10085e-17
2.36161e-17
-9.92592e-22
0
-6.39691e-17
1.1017e-16
-1.46897e-16
-1.70533e-16
1.2809e-16
-4.79879e-17
-5.15401e-17
0
-5.90416e-17
-1.26003e-16
-2.75068e-16
2.07432e-16
-7.58076e-17
0
3.48183e-16
-4.43363e-16
-3.89226e-16
8.05996e-16
-4.17185e-16
1.16474e-16
-3.50475e-16
1.24623e-16
0
0
-2.90788e-16
3.11099e-16
-3.16417e-16
5.12913e-16
-7.11201e-16
3.67825e-16
2.02567e-16
-1.03184e-15
2.10283e-16
-4.62653e-16
2.32375e-16
7.62482e-16
-1.44058e-17
3.11136e-17
1.29319e-17
-2.40111e-17
5.00364e-17
-4.1313e-17
0
0
1.84844e-17
-6.77274e-17
8.97503e-17
2.63138e-17
-2.91028e-17
1.65086e-16
-1.34695e-16
0
0
2.28493e-16
-3.84035e-16
4.64e-16
-2.14886e-16
5.90423e-17
6.30028e-17
0
2.9234e-16
-2.96374e-16
-8.04142e-17
0
0
9.53476e-17
0
0
-2.28672e-16
1.09506e-16
2.44782e-16
0
0
1.45396e-16
0
0
3.43819e-16
-3.49904e-16
3.79689e-16
-3.86656e-16
0
2.16827e-16
-8.62347e-22
0
-2.51649e-16
7.67247e-18
-7.75198e-18
0
0
0
-4.98274e-17
5.0372e-17
6.86465e-17
9.10768e-18
-7.94084e-17
0
8.38496e-17
-2.03782e-16
9.08832e-17
1.45144e-16
-1.8496e-16
0
-4.45617e-17
0
-1.03084e-16
0
-5.90423e-17
0
-6.71126e-17
3.63702e-16
-3.72165e-16
-8.40105e-17
2.55654e-16
7.55257e-18
-1.86841e-16
-2.05506e-16
2.08596e-16
0
0
0
0
0
0
0
0
0
-3.61318e-16
-1.98687e-16
7.85562e-16
-8.25505e-16
2.10285e-16
2.27845e-16
2.4306e-16
-2.4797e-16
-7.67818e-18
7.75774e-18
0
3.21795e-17
-3.25236e-17
0
5.90969e-17
-5.97499e-17
0
-8.87348e-17
1.89027e-16
-7.41111e-17
0
-1.01113e-16
1.34693e-16
3.80567e-17
0
4.45622e-17
-1.97788e-16
2.5185e-16
2.27031e-16
-4.13422e-16
2.45677e-16
-7.04324e-17
1.39417e-16
7.58104e-17
0
-8.89061e-17
1.76609e-16
0
2.05515e-16
-2.08606e-16
0
0
0
0
0
2.95836e-16
-3.00808e-16
-3.27093e-16
3.32781e-16
-3.6133e-16
5.54685e-16
0
0
-3.35343e-18
2.24455e-16
0
0
0
2.91113e-18
0
0
9.16493e-18
0
0
5.26059e-17
-6.94136e-17
0
-9.9266e-17
1.00414e-16
2.91016e-17
0
0
-3.80556e-17
0
0
1.46876e-16
-1.00146e-16
1.68732e-16
6.23332e-18
6.39956e-18
-3.35615e-16
2.85571e-16
-2.23986e-16
8.04119e-17
0
0
-9.53462e-17
2.05506e-16
8.24959e-18
-2.20156e-16
2.40974e-16
-4.98586e-16
-9.33966e-18
2.71563e-16
-2.95824e-16
3.00796e-16
0
0
0
-1.89836e-16
1.93319e-16
2.09562e-16
-2.13554e-16
0
-2.43059e-16
2.4797e-16
4.76411e-19
-1.45555e-18
2.46552e-18
-2.86683e-17
2.79373e-17
5.69203e-18
-6.8375e-18
8.02051e-18
0
0
-1.18085e-17
1.1017e-16
-2.7655e-16
5.63292e-17
8.48277e-17
-2.1731e-17
7.97817e-17
0
-2.39949e-17
0
-5.52238e-17
0
3.1501e-17
2.04654e-16
6.75271e-18
1.20654e-16
-4.42338e-16
1.6676e-16
4.50856e-17
-9.92738e-17
1.97504e-16
-5.31705e-17
5.60918e-17
2.4098e-16
-4.98597e-16
2.57883e-16
6.9084e-17
7.26971e-17
7.64735e-17
0
8.45563e-17
1.80662e-16
-1.83917e-16
0
3.12735e-16
-2.13558e-16
0
1.19719e-16
0
-9.5275e-19
-2.91102e-18
-1.90739e-22
-7.01447e-18
-9.16455e-18
4.41343e-17
-7.99128e-17
2.98691e-17
-3.00181e-17
-1.51609e-17
-4.76393e-18
9.213e-17
-5.57245e-17
5.055e-17
-1.3991e-16
5.44226e-17
-2.06251e-17
-2.22798e-17
-4.79881e-17
-2.57699e-17
2.7611e-17
1.50743e-16
-1.2283e-16
3.35551e-17
3.56883e-17
-1.9302e-16
2.37696e-16
2.1669e-16
-1.76599e-16
4.76722e-17
5.03652e-17
1.06339e-16
2.28657e-16
-2.93553e-16
1.84694e-16
0
-6.00185e-22
1.4791e-16
-3.05946e-16
2.3863e-16
-6.2027e-22
8.88832e-17
9.34191e-17
9.81757e-17
-1.03168e-16
1.0841e-16
-1.17404e-16
-7.15369e-18
2.47969e-16
-3.3611e-18
-2.46172e-18
5.41069e-18
3.50712e-18
2.50124e-17
-2.06511e-17
6.83713e-18
8.01991e-18
-3.92606e-17
5.02078e-17
7.32484e-17
4.87526e-18
-2.66255e-17
8.25346e-17
-8.48231e-17
1.9027e-17
1.26519e-16
-1.56006e-16
1.17108e-16
2.577e-17
-2.44985e-22
-2.49887e-22
-3.15003e-17
-1.71092e-16
1.0372e-16
3.79033e-17
8.22107e-17
-3.89274e-17
-1.80375e-16
4.57477e-17
-2.83059e-22
-2.86212e-22
-1.7042e-16
1.16102e-16
-1.89219e-16
-4.66983e-18
6.66977e-17
-2.20607e-16
1.50397e-16
-8.04217e-17
-1.6911e-16
-2.82342e-22
-9.34192e-17
3.109e-18
-9.67939e-17
-2.10202e-16
-1.07043e-16
-4.75342e-16
-1.25821e-16
-4.76303e-19
0
-2.46511e-18
-3.50687e-18
-4.58183e-18
0
-6.8367e-18
-8.01943e-18
-9.24139e-18
-1.05031e-17
-7.32454e-17
6.33599e-17
-8.98124e-17
6.14315e-17
0
-3.80533e-17
4.40171e-17
-1.7828e-16
1.68001e-16
-1.25912e-16
-2.76106e-17
-1.19649e-16
2.99139e-17
-6.87666e-17
3.40148e-17
-7.58057e-17
-1.62618e-16
-4.62661e-17
-1.87017e-18
-4.76711e-17
-5.03648e-17
-1.06337e-16
-1.70417e-16
1.77449e-16
-5.77859e-17
-2.62542e-16
1.35778e-16
-7.26946e-17
-1.52942e-16
1.63537e-16
-1.6638e-16
2.89078e-18
-1.8391e-16
-9.97282e-17
2.0476e-16
-1.67533e-18
1.13964e-16
-1.17952e-16
2.51641e-16
2.38139e-19
0
1.23255e-18
3.50685e-18
2.27189e-17
-2.06488e-17
3.41838e-18
2.51796e-17
-2.19723e-17
1.57546e-17
1.18073e-17
-6.57767e-18
-1.58063e-17
2.27195e-17
0
-2.98898e-17
7.08228e-17
0
-3.7444e-17
9.92482e-18
9.66606e-17
-4.27333e-17
8.03618e-17
-1.51022e-16
8.75449e-17
1.89514e-17
4.0204e-17
2.12982e-17
4.50834e-17
1.2114e-16
-1.23928e-16
2.65842e-17
1.42371e-16
-1.16098e-16
6.23095e-17
-6.68022e-17
1.03648e-16
-3.51146e-17
7.64706e-17
-4.02099e-17
-1.39514e-18
1.31911e-16
0
1.48815e-16
-5.00093e-17
0
-1.74177e-18
2.37668e-16
-1.8873e-16
2.38162e-19
0
6.16331e-19
0
1.14551e-18
1.24558e-17
-9.17367e-18
2.00474e-18
2.65591e-17
-2.51018e-17
-2.95169e-18
-2.09611e-17
2.42236e-17
-2.52736e-17
3.36676e-17
4.75664e-18
-1.0312e-17
-5.15458e-17
5.85509e-17
6.59143e-17
-3.99093e-17
7.37981e-18
4.80554e-17
-2.4351e-17
1.78435e-17
9.47567e-18
-4.11039e-17
7.36336e-17
0
-3.67341e-17
1.05894e-17
1.19648e-16
-2.69924e-17
1.47833e-17
0
-6.6802e-17
1.02429e-16
-5.57799e-17
-2.57635e-18
9.92074e-17
-8.59483e-17
2.00017e-16
-6.86001e-17
4.90869e-17
8.06632e-19
-8.04893e-17
-5.78305e-17
-3.17174e-17
1.56356e-16
5.95323e-20
1.94788e-18
1.61591e-18
-2.56106e-18
1.14536e-18
-6.93858e-18
-2.34588e-19
5.46127e-18
-1.21236e-17
-1.16423e-18
1.56429e-17
1.21242e-17
-2.54693e-17
1.53566e-17
0
-1.49441e-17
1.99422e-17
2.85566e-17
-2.32763e-17
1.32569e-17
1.49463e-17
-2.52423e-18
-1.14152e-17
4.19414e-18
-3.20766e-17
2.71285e-17
-5.9173e-18
-1.15662e-17
-9.44048e-19
-7.42095e-18
8.76484e-17
1.43229e-17
-5.60984e-17
1.42405e-17
3.17252e-17
-2.40302e-17
0
1.81732e-17
0
-2.07782e-17
-1.37936e-18
6.59538e-17
-4.70823e-17
2.41638e-17
-2.61942e-17
2.62744e-17
4.22946e-17
4.5346e-17
-1.47964e-17
-5.95327e-20
0
-3.0811e-19
-4.38319e-19
0
1.42271e-18
1.05414e-25
1.00236e-18
0
0
-1.47593e-18
9.5704e-23
0
1.99881e-18
-2.18539e-18
1.40086e-22
-2.57793e-18
2.78459e-18
-2.99883e-18
0
-3.45092e-18
-3.68998e-18
-7.87457e-18
8.38801e-18
2.66139e-22
0
5.02536e-18
3.32042e-22
5.63495e-18
-5.95873e-18
-6.29536e-18
0
2.18057e-22
-2.21438e-22
0
-8.20291e-18
2.58971e-22
0
-9.55866e-18
0
0
0
1.1677e-17
-3.8043e-22
3.87541e-22
0
-1.42398e-17
1.49644e-17
-3.14548e-17
0
2.31167e-18
-1.66017e-18
-4.89701e-18
4.06337e-18
-6.93858e-18
5.44077e-18
5.57223e-18
-1.61786e-17
1.46139e-18
1.12154e-17
1.64434e-18
1.51769e-17
-3.3989e-17
1.90181e-17
-4.75639e-18
-1.87372e-17
2.43646e-17
1.53586e-17
-1.2517e-17
3.18255e-17
-4.3897e-17
3.13734e-18
-2.22064e-17
4.86572e-17
-9.04534e-18
-4.11026e-17
6.34459e-17
-6.19966e-17
2.33534e-17
3.19818e-17
-3.9885e-17
5.60984e-17
3.1216e-17
-1.08491e-16
-1.16744e-18
6.90923e-17
-7.2706e-17
4.7156e-17
0
-2.18353e-17
2.11526e-17
1.13111e-17
4.9863e-17
-7.69893e-17
-8.27373e-19
5.65343e-17
3.03816e-17
-1.57398e-17
1.91846e-18
-2.30214e-18
0
8.91863e-18
-8.12799e-18
0
0
2.00474e-18
1.73185e-17
-2.2476e-17
0
0
0
3.32691e-17
-3.36676e-17
-3.46464e-17
3.98863e-17
-5.56956e-18
4.94403e-17
-5.00701e-17
0
3.03046e-17
-3.0706e-17
0
3.65386e-17
-4.6518e-17
-4.11039e-17
4.16869e-17
-3.47655e-17
-1.94366e-18
4.93726e-17
-1.32918e-17
-5.71627e-17
1.1829e-16
-4.56128e-17
6.6802e-17
-6.78882e-17
-7.39535e-17
7.51965e-17
8.17675e-17
-1.04328e-16
0
0
0
0
-8.37879e-19
-3.01993e-17
1.79598e-16
-3.05367e-17
3.83666e-18
-1.16695e-17
7.87469e-18
3.50686e-18
4.58182e-18
2.49117e-17
-2.51839e-17
-1.71602e-17
1.73519e-17
2.2179e-17
-1.06251e-17
4.06944e-17
1.70443e-17
-3.07151e-17
0
0
0
4.59765e-17
2.88578e-18
-5.00704e-17
0
2.9519e-17
3.31129e-17
-9.90335e-17
-3.56872e-17
0
0
0
4.50834e-17
-4.7671e-17
0
1.61587e-16
-1.10074e-16
0
0
-1.17969e-18
-1.19288e-18
0
7.64706e-17
0
0
9.03269e-17
2.96119e-18
3.0709e-18
-1.01592e-16
5.42044e-17
0
-5.80461e-17
6.66328e-17
0
-1.45546e-18
0
-3.50687e-18
-4.58183e-18
2.49124e-17
-2.51847e-17
0
0
-4.43591e-17
3.30587e-17
4.19235e-17
-7.02728e-17
6.65401e-17
-1.22516e-17
-1.52256e-16
7.97746e-17
0
0
0
0
-5.90388e-17
3.14993e-17
1.02321e-16
-3.40149e-17
0
-8.22092e-17
4.07785e-17
-4.50836e-17
4.76711e-17
1.0275e-16
-1.57464e-16
-1.14327e-16
1.161e-16
-6.23103e-17
-6.56228e-17
2.09683e-16
-1.42925e-16
-1.52942e-16
1.63537e-16
-1.66381e-16
9.17727e-17
-2.78827e-16
9.6658e-17
0
-2.18494e-16
1.13964e-16
-1.17952e-16
2.07199e-22
3.3611e-18
-3.87719e-18
-2.4653e-18
-3.50712e-18
1.58481e-17
-2.63428e-17
2.27062e-17
-3.78896e-17
-9.24157e-18
-5.4865e-17
4.48683e-17
-1.31562e-17
-1.45502e-17
-1.5992e-17
-1.96272e-22
-9.78376e-17
5.91523e-17
-1.14237e-16
-2.97655e-17
7.43756e-17
1.13507e-16
-5.59512e-17
0
3.35551e-17
-3.56883e-17
3.79036e-17
4.20059e-17
-8.52299e-17
4.32148e-17
4.76722e-17
5.2387e-17
-5.1128e-17
5.82385e-17
-5.69662e-17
-2.9498e-22
6.5624e-17
-2.09686e-16
2.15623e-16
-2.99414e-22
2.43961e-16
-2.50938e-16
3.58424e-16
-1.83913e-16
9.81758e-17
0
1.0841e-16
-1.17405e-16
4.75342e-16
-2.53528e-16
4.76342e-19
2.91102e-18
-2.12833e-17
5.96763e-17
-6.4207e-17
-8.52664e-18
5.7208e-17
-2.63025e-17
3.47055e-17
1.05037e-17
0
-4.19245e-17
1.3099e-16
2.11006e-17
-4.98552e-17
-4.35624e-22
-4.40177e-17
1.08607e-16
2.39938e-17
-4.68203e-22
-1.13506e-16
2.36214e-16
-9.13283e-17
-6.71107e-17
7.1377e-17
5.14581e-22
1.64421e-16
-3.52575e-17
-8.64283e-17
5.46371e-22
5.03652e-17
-5.31694e-17
5.60907e-17
-1.79621e-16
3.11601e-16
-1.28937e-16
1.38166e-16
-7.26958e-17
1.52945e-16
-1.63538e-16
2.50938e-16
-2.6954e-16
2.77332e-16
-9.81757e-17
0
-1.0841e-16
1.13921e-16
3.89267e-22
2.55415e-16
0
-1.45559e-18
-1.88236e-17
-8.16978e-18
3.71024e-17
5.69203e-18
1.36752e-17
0
9.242e-18
2.10085e-17
-9.92722e-17
1.26734e-16
1.21439e-16
-2.43438e-17
-3.2375e-17
1.90278e-17
2.06261e-17
0
4.79894e-17
2.57707e-17
-5.82882e-17
-3.57541e-17
9.13338e-17
1.00668e-16
-1.81855e-16
-4.48447e-17
2.7791e-16
0
4.50859e-17
1.46947e-16
-1.97504e-16
1.06341e-16
0
0
0
-6.56252e-17
-3.50298e-16
2.85862e-16
7.64739e-17
-8.0423e-17
3.41018e-16
5.71451e-18
-9.04961e-17
1.99464e-16
-2.03193e-16
3.35249e-18
-3.38374e-16
-6.0222e-16
-3.67111e-18
-9.52902e-19
0
-4.931e-18
0
-9.16493e-18
-1.13846e-17
-7.27613e-17
4.36978e-17
0
-2.10084e-17
9.92659e-17
-1.26727e-16
0
-1.65072e-16
6.47431e-17
0
-4.12515e-17
0
-4.79891e-17
5.45241e-17
-1.62658e-16
6.21831e-17
-1.22831e-16
7.04258e-17
-2.10788e-16
0
-8.04119e-17
0
-1.80343e-16
1.94616e-16
-1.97499e-16
-3.23187e-16
2.20156e-16
-1.18274e-16
0
-2.67218e-16
-9.64592e-18
2.85857e-16
-3.05894e-16
0
-1.69112e-16
0
-1.8684e-16
0
2.09562e-16
6.61747e-18
-2.24448e-16
-7.231e-22
-3.77254e-18
9.52916e-19
0
-1.88265e-17
1.6994e-17
-5.00348e-17
5.26959e-17
-1.36757e-17
1.60415e-17
0
6.77255e-17
-1.13367e-16
-1.10176e-16
-3.90824e-17
1.22882e-16
6.99389e-17
1.57636e-16
-3.30123e-16
1.72672e-16
0
5.15427e-17
2.82256e-16
1.24669e-17
-2.45677e-16
6.71133e-17
7.13799e-17
0
8.04136e-17
0
9.0173e-17
0
0
-1.06343e-16
2.2867e-16
1.27045e-16
-3.69406e-16
0
0
-1.45397e-16
1.5295e-16
1.60849e-16
1.69115e-16
5.39103e-16
-3.67841e-16
0
4.15911e-16
-2.16915e-16
4.52302e-16
-3.62525e-18
-7.44257e-18
-9.52948e-19
-1.55859e-17
5.88627e-18
-2.51544e-17
8.19952e-19
4.13007e-17
1.36756e-17
-8.46879e-17
6.94135e-17
1.09732e-16
-4.25017e-17
8.38495e-17
-5.32477e-17
-3.19858e-17
-3.4969e-17
0
1.7054e-16
-2.1722e-16
-4.79898e-17
0
1.16568e-16
-1.70942e-16
1.95458e-16
-3.29043e-16
-3.63702e-16
3.72165e-16
-1.60826e-16
-1.74095e-16
1.766e-16
1.94616e-16
-9.27264e-17
-1.02255e-16
-1.12184e-16
0
-1.29192e-16
2.57878e-16
0
1.45395e-16
0
-3.21694e-16
1.74691e-16
-5.2766e-16
0
-1.96355e-16
2.12715e-22
-2.16824e-16
3.48118e-18
3.53181e-18
0
1.90584e-18
2.91135e-18
-1.88281e-17
3.10262e-17
0
0
0
1.60417e-17
0
0
-7.91281e-22
5.26285e-17
-2.91028e-17
3.19864e-17
0
1.57637e-16
5.22358e-17
5.5821e-17
5.95342e-17
-2.51851e-16
5.52252e-17
5.90423e-17
1.07548e-21
6.71127e-17
1.10893e-21
-7.5811e-17
8.04142e-17
3.48211e-16
-2.63049e-16
-9.53477e-17
4.06986e-16
-1.02265e-16
-1.16485e-16
3.50492e-16
2.5383e-16
-2.57891e-16
1.3817e-16
0
1.52949e-16
3.27097e-16
-1.63669e-16
0
3.79689e-16
-1.90297e-16
-6.25486e-16
1.30115e-15
-4.48915e-16
-2.39443e-16
0
-1.90574e-18
-2.91132e-18
-4.93106e-18
1.81367e-17
-7.33658e-17
9.11204e-17
-4.96098e-18
-7.57745e-17
0
0
-2.36171e-17
5.75316e-17
-1.11446e-16
-3.19841e-17
-1.45137e-16
3.04512e-16
-4.12585e-16
-5.58181e-17
1.86223e-16
-1.60584e-16
1.5964e-16
-1.18082e-16
6.30021e-17
-6.7112e-17
3.63695e-16
-2.96348e-16
0
-4.33379e-16
5.41151e-16
-2.78329e-16
-1.00733e-16
-3.23184e-16
1.07971e-16
-1.18274e-16
0
-1.31249e-16
-2.76335e-16
0
-3.05893e-16
1.60847e-16
-6.82026e-16
-1.14293e-17
1.80985e-16
-1.96354e-16
0
6.69688e-18
-6.76741e-16
-2.39439e-16
0
-1.44055e-17
-1.56722e-17
-1.10683e-17
5.50334e-17
-8.1735e-17
1.82289e-16
3.11018e-17
-1.03452e-16
-7.85279e-17
7.94152e-17
-9.92722e-17
1.26733e-16
0
3.19847e-17
0
-1.57629e-16
3.02674e-17
2.17226e-16
-1.97781e-16
2.00301e-16
2.82248e-16
-1.70951e-16
0
-2.75085e-16
5.71161e-16
-2.96366e-16
0
8.51967e-17
9.01717e-17
-3.89245e-16
3.95011e-16
0
5.6952e-16
-4.64426e-16
0
1.31252e-16
-1.43048e-16
2.85866e-16
1.52949e-16
3.27091e-16
-1.63665e-16
0
1.86844e-16
-2.02579e-16
-1.27479e-17
6.43953e-16
4.62674e-16
-2.3239e-16
2.5165e-16
0
-5.81924e-18
0
-1.40236e-17
0
0
-2.73414e-17
-1.37254e-16
1.38788e-16
0
-1.46467e-16
2.10533e-16
-1.1143e-16
6.91045e-17
-2.79777e-16
3.04478e-16
-2.42023e-16
0
0
-2.12107e-16
2.14844e-16
0
0
0
-1.42744e-16
0
1.60811e-16
1.7038e-16
-1.80329e-16
-1.9068e-16
-2.01452e-16
-2.20997e-16
4.40287e-16
2.36534e-16
2.49235e-16
0
-5.57519e-16
2.85844e-16
3.05881e-16
0
-3.38212e-16
3.55526e-16
0
3.92697e-16
0
-4.33638e-16
2.27845e-16
4.78874e-16
-2.51648e-16
-1.90458e-18
5.81933e-18
4.74907e-17
-4.79926e-17
0
0
1.22125e-21
-3.20712e-17
1.57016e-16
1.86282e-17
-2.83503e-16
2.00798e-16
-5.8191e-17
3.30102e-16
-2.6933e-16
-7.60988e-17
8.24922e-17
0
-9.59657e-17
-1.0307e-16
0
-1.18071e-16
1.32455e-16
-2.61916e-16
1.42746e-16
-1.51605e-16
-1.60813e-16
7.41494e-18
-1.72855e-16
1.90682e-16
1.87696e-21
-1.90717e-21
4.57309e-16
-9.37471e-16
-2.01111e-21
-2.62489e-16
2.76327e-16
2.90777e-16
-2.18375e-21
-3.21681e-16
6.82018e-16
1.14275e-17
-7.41499e-16
-2.35014e-21
-4.19128e-16
4.27114e-16
4.55687e-16
7.25376e-18
-9.99255e-16
1.90458e-18
0
4.74716e-17
3.03564e-17
-1.46676e-16
8.25637e-17
5.46778e-17
3.20712e-17
-3.69541e-17
-1.35392e-16
1.322e-16
-5.26118e-17
5.8191e-17
0
1.45116e-16
-1.46872e-16
8.24872e-17
0
9.59657e-17
-2.121e-16
3.25272e-16
1.18071e-16
3.84424e-16
1.47353e-16
-2.78789e-16
4.61813e-16
1.42722e-17
7.27412e-18
1.87952e-16
-3.73654e-16
6.12438e-16
-4.17169e-16
2.32942e-16
8.68281e-18
-5.07612e-16
7.78218e-16
-2.7632e-16
-4.47885e-21
-4.58306e-21
3.21681e-16
-3.3821e-16
5.77773e-18
7.59186e-16
-7.79329e-16
0
4.33642e-16
-9.11369e-16
0
4.50249e-21
0
-5.82084e-18
4.7465e-17
3.03602e-17
-1.46665e-16
5.97948e-17
-2.73372e-17
-1.69318e-16
3.32719e-16
-2.00766e-16
0
5.26119e-17
0
2.66116e-16
2.09277e-17
-2.17653e-16
-8.24873e-17
-3.67776e-16
3.72402e-16
-1.05793e-20
6.11495e-18
1.24671e-17
-3.71632e-16
1.40839e-16
-4.21541e-16
0
1.67999e-16
-5.03859e-16
1.80326e-16
0
0
-4.25345e-16
2.24351e-16
-7.18453e-16
2.40279e-16
-7.96907e-16
2.57028e-16
-6.01495e-16
2.95688e-16
3.21691e-16
3.3821e-16
-3.55538e-16
-3.73668e-16
-3.9271e-16
8.31795e-16
-4.33789e-16
9.04571e-16
9.65009e-16
1.48983e-17
0
5.82087e-18
-9.86259e-18
-1.40264e-17
-8.17397e-17
5.71123e-18
1.00765e-16
3.20764e-17
0
-2.19485e-16
-1.90578e-17
2.00848e-16
2.42887e-16
-5.11958e-16
4.89759e-16
-2.93832e-16
0
0
-1.97788e-16
9.12381e-17
5.5236e-16
-2.3e-16
-8.4594e-21
0
1.42753e-16
-3.10256e-16
8.04284e-16
-3.33532e-16
0
-1.907e-16
4.11037e-16
-6.38256e-16
8.97687e-16
-4.64438e-16
5.07664e-16
-2.53286e-16
0
2.90788e-16
-3.05905e-16
-9.7589e-16
-3.60308e-16
6.99805e-16
-3.73695e-16
3.92712e-16
-4.12681e-16
-4.33653e-16
-4.62679e-16
4.79101e-16
7.33618e-18
0
5.8242e-18
-2.38494e-21
0
1.83339e-17
0
2.7355e-17
3.20866e-17
0
2.1946e-16
-1.32231e-16
-2.20325e-16
2.22902e-16
2.66172e-16
-4.19765e-16
3.69924e-16
0
-2.78704e-16
3.72461e-16
-3.21176e-16
5.40197e-16
0
-6.44364e-18
5.37011e-16
-5.71147e-16
4.47986e-16
0
1.70403e-16
0
-7.9742e-21
-2.09541e-16
4.17198e-16
-2.32947e-16
4.64417e-16
-2.58381e-16
2.5325e-16
5.62426e-16
3.10738e-16
3.26511e-16
-3.11142e-16
3.38231e-16
7.22637e-16
1.17197e-17
0
0
0
0
4.86127e-16
1.48958e-17
0
-5.82434e-18
9.86503e-18
7.84233e-17
-8.34115e-17
2.27752e-17
2.24476e-21
-3.20873e-17
-1.57106e-16
1.58881e-16
-4.72412e-17
-5.26375e-17
-2.42936e-16
5.76041e-16
-6.29746e-16
2.17764e-16
-3.41161e-16
2.56267e-16
9.59923e-17
-1.03094e-16
-2.2092e-16
0
-1.26016e-16
0
2.92374e-16
-4.48038e-16
-1.68058e-16
1.63158e-16
-3.68362e-16
1.75158e-16
8.06133e-16
-8.51006e-16
2.1599e-16
0
-2.49267e-16
5.25045e-16
-5.62488e-16
2.80976e-16
6.22277e-16
-6.32909e-16
0
3.55562e-16
-3.73707e-16
0
-8.31874e-16
4.27152e-16
6.97535e-18
4.93206e-16
-1.51015e-15
1.90672e-18
0
4.75002e-17
-1.26382e-16
6.50335e-17
-2.27745e-17
-2.73571e-17
0
3.69773e-17
4.20264e-17
1.98551e-16
7.21378e-17
-4.65812e-16
-8.44156e-17
-2.09281e-17
3.69955e-16
0
0
-9.59895e-17
0
2.20919e-16
-3.66836e-16
1.00831e-15
-7.98987e-16
4.28405e-16
1.38809e-17
-1.46566e-16
-1.63121e-16
-3.68326e-16
-1.55497e-17
-7.94334e-18
-4.33713e-16
-1.70072e-17
7.00998e-16
0
-2.62517e-16
-2.76355e-16
0
0
6.54189e-16
-6.65564e-16
7.22661e-16
3.97391e-16
-1.57117e-15
-2.5494e-17
4.13886e-16
1.36728e-15
-9.50714e-16
-7.54173e-18
-1.90678e-18
0
0
0
0
0
0
-1.37365e-16
1.01921e-16
-4.20278e-17
-1.98611e-16
-1.95024e-17
2.22988e-16
0
0
2.39212e-16
-6.60382e-16
3.45414e-16
3.95648e-16
-4.00688e-16
-5.64604e-16
3.41975e-16
0
0
-1.49607e-16
2.96416e-16
0
-1.70414e-16
3.68372e-16
-7.63049e-16
5.96556e-16
4.33764e-16
-4.40386e-16
-2.36573e-16
0
0
2.76365e-16
5.91732e-16
-6.01677e-16