/*--------------------------------*- C++ -*----------------------------------*\
  =========                 |
  \\      /  F ield         | OpenFOAM: The Open Source CFD Toolbox
   \\    /   O peration     | Website:  https://openfoam.org
    \\  /    A nd           | Version:  6
     \\/     M anipulation  |
\*---------------------------------------------------------------------------*/
FoamFile
{
    version     2.0;
    format      ascii;
    class       volScalarField;
    location    "60";
    object      gradTx;
}
// * * * * * * * * * * * * * * * * * * * * * * * * * * * * * * * * * * * * * //

dimensions      [0 -1 0 1 0 0 0];

internalField   nonuniform List<scalar> 
1596
(
-0.0277148
-0.140264
-0.254861
-0.364436
-0.470184
-0.573012
-0.677224
-0.785349
-0.900382
-1.02874
-1.17113
-1.33536
-1.53167
-1.77686
-2.09213
-2.53445
-3.19381
-4.26539
-6.1524
0.00659899
-0.115679
-0.226991
-0.328233
-0.423075
-0.512788
-0.601096
-0.689053
-0.778701
-0.872846
-0.970488
-1.07506
-1.1866
-1.30605
-1.42918
-1.54995
-1.64227
-1.65439
-1.47763
0.0349218
-0.0928649
-0.199081
-0.29117
-0.374634
-0.451416
-0.52458
-0.59467
-0.662854
-0.730246
-0.795307
-0.85922
-0.919567
-0.973875
-1.01607
-1.03689
-1.01487
-0.913703
-0.663753
0.0398993
-0.079892
-0.175758
-0.25678
-0.32846
-0.392944
-0.452533
-0.507603
-0.558753
-0.606245
-0.648718
-0.686234
-0.716266
-0.735924
-0.740247
-0.721608
-0.665684
-0.550002
-0.332492
0.0136428
-0.081925
-0.160981
-0.228557
-0.288046
-0.340998
-0.388771
-0.431603
-0.469703
-0.502878
-0.530188
-0.551151
-0.563776
-0.565609
-0.553183
-0.520937
-0.459962
-0.356815
-0.186747
-0.0410868
-0.100715
-0.157455
-0.209298
-0.256143
-0.298185
-0.335663
-0.368541
-0.396691
-0.419642
-0.436833
-0.447531
-0.450317
-0.443295
-0.42419
-0.389052
-0.332472
-0.24638
-0.116257
-0.113125
-0.134244
-0.165967
-0.200515
-0.234318
-0.265836
-0.294119
-0.318674
-0.33903
-0.354502
-0.364753
-0.368953
-0.366119
-0.354826
-0.333624
-0.299703
-0.249793
-0.178958
-0.0785861
-0.187215
-0.175481
-0.183315
-0.200582
-0.221476
-0.242893
-0.262834
-0.280231
-0.294256
-0.30404
-0.309304
-0.309206
-0.303049
-0.28977
-0.268455
-0.237097
-0.19371
-0.135223
-0.0564516
-0.262213
-0.228098
-0.215414
-0.216018
-0.223863
-0.234961
-0.246573
-0.25705
-0.265199
-0.26996
-0.270966
-0.267397
-0.25871
-0.244098
-0.222982
-0.193932
-0.155721
-0.106398
-0.042744
-0.304568
-0.26277
-0.238192
-0.226952
-0.224572
-0.227202
-0.231926
-0.236729
-0.240171
-0.241059
-0.238894
-0.232913
-0.222658
-0.207528
-0.187163
-0.160576
-0.127019
-0.0852723
-0.0333047
-0.337356
-0.293137
-0.262017
-0.242541
-0.232048
-0.227416
-0.225986
-0.225626
-0.224762
-0.222119
-0.217054
-0.208851
-0.197099
-0.181347
-0.161385
-0.136555
-0.106422
-0.0702536
-0.0267817
-0.369762
-0.326674
-0.292308
-0.26711
-0.250028
-0.238897
-0.231591
-0.226091
-0.220815
-0.214453
-0.206245
-0.195499
-0.181825
-0.164885
-0.144579
-0.120498
-0.0924289
-0.0599655
-0.0223194
-0.37446
-0.338001
-0.305404
-0.278962
-0.258997
-0.244313
-0.233412
-0.224563
-0.216305
-0.207374
-0.196961
-0.184413
-0.169373
-0.151608
-0.131124
-0.10773
-0.0813914
-0.051946
-0.0189209
-0.371743
-0.34229
-0.313561
-0.288241
-0.26752
-0.251029
-0.237874
-0.22669
-0.216201
-0.205235
-0.192978
-0.178807
-0.162403
-0.143622
-0.12258
-0.0992762
-0.0738473
-0.0463363
-0.0165141
-0.366173
-0.343027
-0.318861
-0.29605
-0.276085
-0.259162
-0.244883
-0.232256
-0.22022
-0.207713
-0.19395
-0.178322
-0.160541
-0.140536
-0.118528
-0.0947016
-0.0693759
-0.0427872
-0.0149104
-0.352679
-0.335905
-0.316843
-0.297697
-0.279972
-0.264165
-0.250206
-0.237415
-0.22493
-0.211797
-0.197274
-0.180746
-0.161938
-0.140824
-0.117728
-0.0930149
-0.0672165
-0.0407876
-0.0139021
-0.331385
-0.320398
-0.306583
-0.291825
-0.277481
-0.264145
-0.251911
-0.240309
-0.228625
-0.215985
-0.201675
-0.185046
-0.1658
-0.143913
-0.119774
-0.0939166
-0.0671274
-0.0401458
-0.0133999
-0.30801
-0.300783
-0.291544
-0.281215
-0.27076
-0.2607
-0.251154
-0.241767
-0.231906
-0.220738
-0.207546
-0.191609
-0.172556
-0.15029
-0.125187
-0.0978959
-0.0694735
-0.0410441
-0.0134307
-0.288783
-0.284754
-0.279321
-0.272946
-0.266208
-0.259472
-0.252825
-0.245962
-0.238301
-0.229021
-0.217385
-0.202569
-0.184081
-0.161666
-0.135561
-0.106386
-0.0753947
-0.0441772
-0.0141852
-0.257969
-0.257728
-0.256212
-0.254061
-0.251659
-0.249197
-0.246649
-0.243677
-0.239676
-0.233785
-0.225201
-0.212976
-0.196453
-0.17515
-0.149028
-0.118447
-0.0846207
-0.0495471
-0.0156461
-0.22505
-0.227968
-0.230078
-0.231962
-0.233887
-0.235916
-0.237902
-0.239444
-0.239874
-0.238259
-0.233703
-0.225112
-0.21166
-0.192615
-0.167558
-0.136319
-0.0995555
-0.0591283
-0.0185144
-0.191565
-0.196847
-0.202205
-0.207934
-0.214144
-0.220781
-0.227589
-0.234099
-0.239573
-0.242987
-0.243317
-0.239324
-0.230029
-0.214512
-0.192019
-0.161721
-0.123107
-0.0764992
-0.0247197
-0.155063
-0.161968
-0.170181
-0.179623
-0.190184
-0.201668
-0.21372
-0.225797
-0.237092
-0.246476
-0.252747
-0.254505
-0.250618
-0.240093
-0.222096
-0.195456
-0.158464
-0.108528
-0.0425739
-0.114187
-0.117276
-0.121763
-0.127487
-0.13441
-0.142504
-0.151697
-0.161762
-0.172205
-0.182192
-0.19057
-0.195899
-0.196942
-0.192689
-0.182443
-0.165375
-0.140022
-0.102672
-0.0459507
-0.0775527
-0.0922523
-0.112171
-0.136401
-0.164154
-0.194605
-0.226947
-0.260223
-0.293228
-0.32443
-0.351855
-0.37339
-0.387238
-0.392328
-0.388293
-0.375081
-0.352051
-0.316613
-0.262014
-0.027898
-0.0388061
-0.0542757
-0.0735331
-0.0958834
-0.120696
-0.147497
-0.175798
-0.205009
-0.234217
-0.261841
-0.285968
-0.304471
-0.315887
-0.319787
-0.317199
-0.309562
-0.298641
-0.285201
0.0226133
0.00953662
-0.00864206
-0.031088
-0.0569428
-0.0854622
-0.116129
-0.14857
-0.182428
-0.2171
-0.251284
-0.283005
-0.309726
-0.329181
-0.340187
-0.343457
-0.340786
-0.334443
-0.325733
0.0744004
0.0582608
0.0364976
0.0101917
-0.0196211
-0.0520686
-0.0865974
-0.122944
-0.161005
-0.200567
-0.240787
-0.279885
-0.315092
-0.343249
-0.361996
-0.371132
-0.372495
-0.36888
-0.362202
0.123185
0.102766
0.0765095
0.0458543
0.0119972
-0.0240801
-0.0618344
-0.101128
-0.142137
-0.185108
-0.229826
-0.275072
-0.318251
-0.355529
-0.38304
-0.39892
-0.404332
-0.402587
-0.396743
0.176544
0.151239
0.120199
0.0851068
0.0473008
0.00786383
-0.0326871
-0.0743265
-0.117477
-0.162828
-0.210873
-0.261293
-0.312246
-0.359834
-0.398737
-0.424587
-0.436406
-0.437222
-0.431684
0.22074
0.189409
0.153007
0.113435
0.0721605
0.0302808
-0.0117925
-0.0541802
-0.0975196
-0.142872
-0.191392
-0.243872
-0.299888
-0.356635
-0.408352
-0.448078
-0.470726
-0.476552
-0.470753
0.266109
0.229112
0.187385
0.143549
0.0992235
0.0554532
0.0125143
-0.0298353
-0.0723411
-0.116243
-0.1631
-0.214678
-0.272296
-0.335506
-0.400207
-0.458751
-0.501158
-0.520894
-0.519636
0.312808
0.268576
0.221049
0.173068
0.126143
0.0811017
0.0380179
-0.00346607
-0.0440967
-0.085064
-0.127911
-0.174789
-0.228297
-0.29079
-0.362095
-0.438392
-0.508722
-0.558602
-0.57296
0.350426
0.295117
0.238509
0.183219
0.130318
0.0802062
0.0326211
-0.0129582
-0.0572926
-0.101426
-0.146613
-0.194749
-0.248569
-0.311979
-0.388937
-0.483138
-0.592367
-0.707546
-0.809938
0.381918
0.319796
0.260821
0.206949
0.158452
0.115179
0.0765138
0.0418948
0.0107072
-0.0176485
-0.0436106
-0.0678341
-0.0911246
-0.115001
-0.142216
-0.178166
-0.229664
-0.305036
-0.410231
0.411889
0.345635
0.287208
0.236553
0.19274
0.154944
0.122152
0.0936433
0.0687704
0.0469682
0.0280133
0.0116415
-0.00214676
-0.0132271
-0.0212986
-0.0263684
-0.0288802
-0.0310432
-0.0370794
0.406745
0.330492
0.266205
0.211822
0.165461
0.125768
0.0914712
0.0617047
0.0357776
0.0131172
-0.00647113
-0.0232162
-0.0371197
-0.0480657
-0.0557149
-0.059729
-0.0595198
-0.0546515
-0.0449286
0.370858
0.297955
0.238234
0.188886
0.147714
0.113148
0.0838789
0.0590007
0.0378369
0.0198536
0.00481333
-0.00753255
-0.0173076
-0.0246083
-0.0295001
-0.0321704
-0.0328243
-0.0318192
-0.0295116
0.318474
0.254647
0.202981
0.160859
0.126205
0.0974966
0.073523
0.0534248
0.0365757
0.0224801
0.0108567
0.00143142
-0.00601466
-0.0116883
-0.0157855
-0.0185693
-0.0202879
-0.0212135
-0.021584
0.246158
0.195568
0.155321
0.12301
0.0967956
0.075344
0.0576422
0.0429642
0.0307901
0.0207067
0.0124487
0.0057715
0.000456118
-0.00369629
-0.00686505
-0.00925033
-0.0110225
-0.0123329
-0.01331
0.157911
0.124016
0.0978191
0.0771955
0.0606959
0.0473299
0.036391
0.0273794
0.0199441
0.0138074
0.00878069
0.00469665
0.00139903
-0.00124982
-0.00337035
-0.00508533
-0.00649322
-0.00766389
-0.00865179
0.0614688
0.0482382
0.038325
0.0306177
0.0244677
0.0194686
0.0153474
0.0119151
0.00904081
0.00662223
0.00458785
0.00287605
0.00142853
0.000194182
-0.000872174
-0.00181572
-0.00267365
-0.00346974
-0.00422013
-0.0614398
-0.0481797
-0.0382515
-0.0305388
-0.0243895
-0.0193951
-0.0152813
-0.0118578
-0.00899317
-0.00658446
-0.0045597
-0.00285701
-0.00141794
-0.000191347
0.000867914
0.00180487
0.00265657
0.00344664
0.00419108
-0.157886
-0.123968
-0.0977596
-0.077133
-0.0606361
-0.0472765
-0.0363466
-0.0273455
-0.0199215
-0.0137964
-0.0087809
-0.00470752
-0.00141971
0.00122026
0.0033329
0.00504086
0.00644248
0.00760754
0.00859044
-0.246135
-0.195527
-0.155268
-0.122951
-0.0967372
-0.075289
-0.057593
-0.0429225
-0.0307569
-0.0206824
-0.0124329
-0.00576358
-0.000454875
0.00369239
0.00685782
0.00924166
0.0110144
0.0123269
0.0133076
-0.318463
-0.254628
-0.202958
-0.160835
-0.126184
-0.0974816
-0.0735164
-0.0534282
-0.0365904
-0.0225066
-0.0108951
-0.00148086
0.00595555
0.0116217
0.0157141
0.018496
0.0202161
0.0211458
0.0215228
-0.370858
-0.297955
-0.238232
-0.188885
-0.147715
-0.113154
-0.0838919
-0.059023
-0.0378702
-0.0198995
-0.00487235
0.00746031
0.0172231
0.0245139
0.0293994
0.0320684
0.0327275
0.0317344
0.0294461
-0.40676
-0.330513
-0.266227
-0.211845
-0.165486
-0.125797
-0.0915083
-0.0617525
-0.0358394
-0.0131962
0.00637193
0.023094
0.0369724
0.0478926
0.0555187
0.0595173
0.0593091
0.0544671
0.0448002
-0.411907
-0.345629
-0.287162
-0.236457
-0.192588
-0.154733
-0.121879
-0.0933086
-0.0683728
-0.0465067
-0.027487
-0.011049
0.00280795
0.0139593
0.022099
0.0272168
0.0297169
0.0317334
0.0373914
-0.382009
-0.320023
-0.261195
-0.207476
-0.159137
-0.116029
-0.077535
-0.0430967
-0.0121009
0.0160486
0.0417847
0.0657534
0.0887435
0.112245
0.138971
0.17427
0.224938
0.299362
0.403664
-0.350413
-0.295062
-0.238395
-0.183037
-0.13006
-0.0798695
-0.032203
0.0134575
0.0578712
0.102079
0.147333
0.19552
0.249373
0.312793
0.389755
0.484003
0.593423
0.70906
0.812288
-0.312845
-0.268656
-0.221165
-0.173215
-0.126316
-0.0812966
-0.0382333
0.00323038
0.0438387
0.0847792
0.127592
0.174426
0.227884
0.290336
0.361639
0.438019
0.508542
0.558687
0.57323
-0.266135
-0.229165
-0.187461
-0.143643
-0.0993334
-0.0555758
-0.0126488
0.0296879
0.0721781
0.116061
0.162892
0.214444
0.272044
0.335263
0.400022
0.458685
0.501248
0.521121
0.519937
-0.220764
-0.189457
-0.153077
-0.113524
-0.0722651
-0.0303982
0.0116634
0.0540395
0.097366
0.142705
0.19121
0.243683
0.299709
0.356496
0.408289
0.448119
0.470865
0.476754
0.470977
-0.176564
-0.151283
-0.120264
-0.0851905
-0.0474002
-0.00797639
0.0325632
0.0741922
0.117333
0.162676
0.210717
0.261145
0.312125
0.359764
0.398739
0.424665
0.436545
0.437396
0.431876
-0.123201
-0.102803
-0.0765659
-0.0459279
-0.0120853
0.02398
0.0617245
0.101011
0.142014
0.184982
0.229705
0.274969
0.318182
0.35551
0.383081
0.399016
0.40447
0.402753
0.396929
-0.0744155
-0.0582953
-0.0365508
-0.0102619
0.0195365
0.0519724
0.0864924
0.122833
0.160892
0.200457
0.240688
0.27981
0.315053
0.343258
0.362055
0.371237
0.372637
0.369051
0.362399
-0.0226245
-0.00956599
0.00859499
0.0310249
0.0568661
0.0853748
0.116034
0.148471
0.182329
0.217009
0.251209
0.282957
0.309715
0.329213
0.340264
0.343577
0.340943
0.334636
0.325963
0.0278764
0.0387379
0.0541542
0.0733539
0.0956442
0.120396
0.147141
0.175389
0.204557
0.233733
0.261342
0.285471
0.303995
0.315446
0.319394
0.316871
0.309324
0.298543
0.285335
0.0775714
0.092318
0.112302
0.136613
0.16446
0.195015
0.227469
0.260859
0.293979
0.325289
0.352814
0.374437
0.388358
0.393505
0.389513
0.376326
0.353304
0.31785
0.2632
0.114175
0.117222
0.121664
0.127339
0.134215
0.142265
0.151421
0.161454
0.171874
0.181847
0.190221
0.195555
0.196612
0.192381
0.182163
0.16513
0.139818
0.102521
0.0458786
0.155078
0.161994
0.170219
0.179674
0.190248
0.201742
0.213803
0.225884
0.237181
0.246563
0.252829
0.254579
0.250681
0.240144
0.222133
0.195478
0.15847
0.108522
0.0425661
0.191574
0.196858
0.202218
0.20795
0.214162
0.220802
0.227613
0.234124
0.239598
0.243011
0.24334
0.239344
0.230046
0.214524
0.192025
0.161721
0.123103
0.0764936
0.0247171
0.225059
0.227979
0.230091
0.231977
0.233904
0.235936
0.237923
0.239465
0.239895
0.23828
0.233722
0.225128
0.211673
0.192624
0.167563
0.13632
0.0995546
0.0591268
0.018514
0.257979
0.257739
0.256224
0.254076
0.251675
0.249214
0.246667
0.243696
0.239695
0.233802
0.225217
0.212989
0.196464
0.175158
0.149032
0.118449
0.0846214
0.0495473
0.0156463
0.288793
0.284765
0.279334
0.27296
0.266223
0.259488
0.252841
0.245978
0.238317
0.229036
0.217398
0.20258
0.18409
0.161672
0.135566
0.106388
0.0753961
0.044178
0.0141854
0.30802
0.300794
0.291556
0.281228
0.270774
0.260714
0.251169
0.241781
0.23192
0.22075
0.207557
0.191618
0.172563
0.150295
0.125191
0.0978984
0.0694751
0.041045
0.013431
0.331394
0.320409
0.306594
0.291837
0.277493
0.264157
0.251923
0.24032
0.228636
0.215995
0.201684
0.185053
0.165806
0.143918
0.119777
0.0939189
0.0671289
0.0401467
0.0134002
0.352688
0.335915
0.316853
0.297708
0.279984
0.264177
0.250217
0.237425
0.224939
0.211806
0.197281
0.180752
0.161943
0.140828
0.117731
0.093017
0.0672179
0.0407884
0.0139024
0.366181
0.343036
0.31887
0.296059
0.276094
0.259171
0.244892
0.232264
0.220228
0.20772
0.193956
0.178327
0.160545
0.140539
0.11853
0.0947032
0.069377
0.0427878
0.0149106
0.371751
0.342298
0.31357
0.288249
0.267528
0.251037
0.237882
0.226697
0.216208
0.20524
0.192983
0.178811
0.162406
0.143625
0.122582
0.0992776
0.0738482
0.0463368
0.0165143
0.374468
0.338009
0.305413
0.278969
0.259005
0.24432
0.233419
0.22457
0.216311
0.207379
0.196965
0.184416
0.169376
0.15161
0.131126
0.107732
0.0813923
0.0519465
0.0189211
0.369767
0.326679
0.292313
0.267115
0.250033
0.238902
0.231595
0.226095
0.220818
0.214455
0.206247
0.1955
0.181826
0.164886
0.144579
0.120499
0.0924292
0.0599656
0.0223195
0.337362
0.293144
0.262024
0.242546
0.232053
0.227421
0.22599
0.22563
0.224765
0.222121
0.217057
0.208853
0.1971
0.181348
0.161386
0.136555
0.106422
0.0702539
0.0267818
0.304574
0.262776
0.238198
0.226957
0.224577
0.227206
0.231929
0.236732
0.240173
0.241061
0.238895
0.232914
0.222659
0.207528
0.187164
0.160577
0.127019
0.0852725
0.0333048
0.262218
0.228103
0.215418
0.216022
0.223866
0.234963
0.246576
0.257052
0.265201
0.269961
0.270967
0.267398
0.25871
0.244099
0.222983
0.193933
0.155721
0.106398
0.0427441
0.187219
0.175484
0.183317
0.200584
0.221478
0.242895
0.262835
0.280232
0.294257
0.304041
0.309304
0.309206
0.303049
0.28977
0.268455
0.237097
0.19371
0.135223
0.0564516
0.113128
0.134246
0.165968
0.200517
0.23432
0.265837
0.29412
0.318675
0.339031
0.354502
0.364753
0.368953
0.366119
0.354826
0.333624
0.299703
0.249793
0.178958
0.0785861
0.0410885
0.100716
0.157456
0.209299
0.256143
0.298186
0.335664
0.368541
0.396692
0.419642
0.436833
0.447531
0.450317
0.443294
0.42419
0.389051
0.332472
0.246379
0.116257
-0.013642
0.0819258
0.160981
0.228558
0.288047
0.340999
0.388771
0.431604
0.469703
0.502878
0.530188
0.551151
0.563775
0.565609
0.553183
0.520936
0.459961
0.356814
0.186747
-0.0398992
0.0798925
0.175758
0.256781
0.328461
0.392944
0.452533
0.507603
0.558753
0.606245
0.648718
0.686234
0.716265
0.735923
0.740246
0.721608
0.665684
0.550002
0.332492
-0.0349222
0.0928651
0.199081
0.291171
0.374634
0.451416
0.52458
0.59467
0.662854
0.730246
0.795306
0.859219
0.919567
0.973874
1.01607
1.03689
1.01487
0.913703
0.663753
-0.00659918
0.115679
0.226992
0.328234
0.423075
0.512789
0.601097
0.689054
0.778701
0.872846
0.970487
1.07506
1.1866
1.30605
1.42918
1.54995
1.64227
1.65439
1.47763
0.0277149
0.140264
0.254862
0.364437
0.470185
0.573012
0.677224
0.785349
0.900382
1.02874
1.17113
1.33536
1.53167
1.77686
2.09213
2.53445
3.19381
4.26539
6.1524
)
;

boundaryField
{
    up
    {
        type            calculated;
        value           nonuniform List<scalar> 
84
(
-6.1524
-1.47763
-0.663753
-0.332492
-0.186747
-0.116257
-0.0785861
-0.0564516
-0.042744
-0.0333047
-0.0267817
-0.0223194
-0.0189209
-0.0165141
-0.0149104
-0.0139021
-0.0133999
-0.0134307
-0.0141852
-0.0156461
-0.0185144
-0.0247197
-0.0425739
-0.0459507
-0.226953
-0.271659
-0.314596
-0.351925
-0.38658
-0.420892
-0.457779
-0.499614
-0.541573
-0.817059
-0.429146
-0.0380861
-0.0450292
-0.0295387
-0.0215941
-0.0133152
-0.00865473
-0.00422281
0.00419374
0.00859338
0.0133128
0.0215328
0.0294729
0.0448999
0.0383866
0.422307
0.819925
0.541798
0.49987
0.457991
0.421082
0.386769
0.352129
0.31484
0.271907
0.228051
0.0458786
0.0425661
0.0247171
0.018514
0.0156463
0.0141854
0.013431
0.0134002
0.0139024
0.0149106
0.0165143
0.0189211
0.0223195
0.0267818
0.0333048
0.0427441
0.0564516
0.0785861
0.116257
0.186747
0.332492
0.663753
1.47763
6.1524
)
;
    }
    low
    {
        type            calculated;
        value           nonuniform List<scalar> 
84
(
-0.0251246
0.0102581
0.0409292
0.0465148
0.0178248
-0.041859
-0.119411
-0.197542
-0.273607
-0.31301
-0.343885
-0.373859
-0.373991
-0.368517
-0.361279
-0.345593
-0.322629
-0.299076
-0.279001
-0.246529
-0.213085
-0.17987
-0.144025
-0.104706
-0.0702765
-0.0252758
0.0195743
0.0665442
0.112479
0.164832
0.209837
0.255928
0.304344
0.344892
0.379081
0.412648
0.411909
0.377752
0.32542
0.252178
0.162125
0.0632884
-0.0632591
-0.162099
-0.252153
-0.325404
-0.377746
-0.411916
-0.412657
-0.379158
-0.344878
-0.304375
-0.255951
-0.209859
-0.164851
-0.112495
-0.0665595
-0.0195856
0.0252547
0.0702946
0.104695
0.144039
0.179878
0.213094
0.246539
0.279012
0.299087
0.322639
0.345603
0.361287
0.368525
0.373998
0.373864
0.343891
0.313017
0.273613
0.197546
0.119415
0.0418609
-0.0178239
-0.0465148
-0.0409297
-0.0102583
0.0251247
)
;
    }
    left
    {
        type            calculated;
        value           nonuniform List<scalar> 
19
(
-0.0245564
-0.134529
-0.251276
-0.364401
-0.474476
-0.581942
-0.69158
-0.80642
-0.929493
-1.06929
-1.22633
-1.40983
-1.63377
-1.92147
-2.30009
-2.85033
-3.69712
-5.11296
-5.33667
)
;
    }
    right
    {
        type            calculated;
        value           nonuniform List<scalar> 
19
(
0.0245566
0.13453
0.251277
0.364402
0.474477
0.581943
0.691581
0.80642
0.929494
1.06929
1.22633
1.40983
1.63377
1.92147
2.30009
2.85033
3.69712
5.11296
5.33667
)
;
    }
    frontAndBackPlanes
    {
        type            empty;
    }
}


// ************************************************************************* //
