/*--------------------------------*- C++ -*----------------------------------*\
  =========                 |
  \\      /  F ield         | OpenFOAM: The Open Source CFD Toolbox
   \\    /   O peration     | Website:  https://openfoam.org
    \\  /    A nd           | Version:  6
     \\/     M anipulation  |
\*---------------------------------------------------------------------------*/
FoamFile
{
    version     2.0;
    format      ascii;
    class       volScalarField;
    location    "60";
    object      gradTy;
}
// * * * * * * * * * * * * * * * * * * * * * * * * * * * * * * * * * * * * * //

dimensions      [0 -1 0 1 0 0 0];

internalField   nonuniform List<scalar> 
13524
(
3.98907
4.03557
4.08069
4.12559
4.17073
4.21644
4.26293
4.31029
4.35864
4.40803
4.45851
4.51013
4.56293
4.61697
4.6723
4.72897
4.78704
4.84654
4.90753
4.97006
5.0342
5.10002
5.16757
5.23695
5.30822
5.38145
5.45672
5.53413
5.61378
5.69576
5.78018
5.86715
5.95677
6.04916
6.14444
6.24277
6.3443
6.44918
6.55756
6.66965
6.78565
6.90577
7.03025
7.15934
7.29334
7.43259
7.57755
7.72896
7.8883
4.00038
4.03982
4.08168
4.12502
4.1694
4.21477
4.26107
4.30835
4.35665
4.406
4.45645
4.50805
4.56082
4.61483
4.67014
4.72679
4.78484
4.84431
4.90527
4.96777
5.03187
5.09766
5.16519
5.23454
5.30577
5.37896
5.4542
5.53157
5.61119
5.69314
5.77754
5.86446
5.95403
6.04637
6.14161
6.23991
6.34139
6.4462
6.55452
6.66655
6.78248
6.9025
7.02684
7.15572
7.28935
7.42789
7.57128
7.71862
7.86568
3.83173
3.87405
3.91581
3.95781
4.00046
4.04391
4.08822
4.13348
4.17974
4.22705
4.27542
4.32488
4.37548
4.42729
4.48036
4.53472
4.59039
4.64742
4.70589
4.76586
4.82737
4.89049
4.95528
5.0218
5.09013
5.16034
5.23253
5.30678
5.38317
5.46179
5.54274
5.62612
5.71205
5.80064
5.89202
5.98631
6.08365
6.1842
6.28812
6.39559
6.50678
6.62188
6.74111
6.86465
6.9927
7.12541
7.26293
7.40575
7.55664
3.77885
3.81505
3.85361
3.8937
3.93501
3.97735
4.0207
4.06506
4.11045
4.1569
4.20439
4.25297
4.30272
4.35366
4.40584
4.45927
4.51398
4.57006
4.62757
4.68654
4.74704
4.8091
4.87279
4.9382
5.00539
5.07445
5.14544
5.21845
5.29356
5.37086
5.45046
5.53247
5.61697
5.70409
5.79394
5.88664
5.98236
6.08124
6.18344
6.28911
6.39844
6.51162
6.62886
6.75033
6.87622
7.00666
7.14163
7.28059
7.42059
3.66546
3.70516
3.74438
3.78398
3.82427
3.86539
3.90746
3.95049
3.99453
4.03959
4.08569
4.13289
4.18123
4.23072
4.28138
4.33327
4.38644
4.44095
4.49683
4.55414
4.61292
4.67321
4.7351
4.79867
4.86398
4.9311
5.00008
5.07102
5.144
5.21912
5.29648
5.37617
5.45828
5.54293
5.63024
5.72033
5.81336
5.90945
6.00876
6.11145
6.2177
6.32771
6.44168
6.55979
6.68226
6.80932
6.94126
7.07881
7.22497
3.54489
3.57831
3.614
3.65123
3.68964
3.72911
3.76957
3.81101
3.85344
3.89688
3.94135
3.98688
4.03349
4.08121
4.13007
4.18013
4.23142
4.284
4.33791
4.39319
4.44987
4.50803
4.56775
4.62907
4.69207
4.7568
4.82334
4.89177
4.96218
5.03465
5.10927
5.18614
5.26535
5.34701
5.43123
5.51815
5.60788
5.70058
5.79638
5.89546
5.99798
6.10414
6.21414
6.32818
6.44651
6.56935
6.69687
6.82884
6.96279
3.49004
3.52713
3.56418
3.60172
3.63999
3.67911
3.71913
3.76007
3.80197
3.84485
3.88875
3.93368
3.97966
4.02674
4.07495
4.12435
4.17497
4.22684
4.28002
4.33454
4.39047
4.44786
4.50679
4.56729
4.62944
4.6933
4.75896
4.82648
4.89595
4.96745
5.04107
5.11691
5.19506
5.27563
5.35873
5.44448
5.53302
5.62449
5.71902
5.81679
5.91797
6.02275
6.13133
6.24397
6.36091
6.4825
6.60924
6.74217
6.88462
3.29946
3.33221
3.36633
3.40152
3.43766
3.47468
3.51255
3.5513
3.59094
3.63151
3.67301
3.71546
3.7589
3.80338
3.84895
3.89562
3.94343
3.99242
4.04264
4.09415
4.14699
4.2012
4.25684
4.31398
4.37269
4.43301
4.49503
4.55881
4.62442
4.69195
4.76148
4.83312
4.90694
4.98304
5.06153
5.14253
5.22616
5.31256
5.40186
5.49421
5.58979
5.68877
5.79137
5.8978
6.00832
6.12326
6.24296
6.36762
6.49608
3.29348
3.32747
3.36243
3.39823
3.43478
3.47206
3.51013
3.549
3.58874
3.62936
3.67087
3.71333
3.75678
3.80127
3.84682
3.89346
3.94123
3.9902
4.04041
4.0919
4.1447
4.19888
4.2545
4.31161
4.37029
4.43058
4.49257
4.55631
4.62188
4.68937
4.75887
4.83047
4.90425
4.98031
5.05875
5.13971
5.2233
5.30965
5.3989
5.4912
5.58672
5.68564
5.78815
5.89448
6.00488
6.11969
6.23938
6.36488
6.4986
3.06307
3.09857
3.13308
3.16744
3.20203
3.2371
3.27278
3.30915
3.34628
3.38419
3.42294
3.46256
3.5031
3.5446
3.58707
3.63057
3.67513
3.7208
3.76762
3.81563
3.86487
3.91539
3.96725
4.02052
4.07523
4.13146
4.18926
4.24869
4.30984
4.37277
4.43758
4.50434
4.57314
4.64407
4.71722
4.79271
4.87065
4.95117
5.03439
5.12045
5.2095
5.30171
5.39724
5.49629
5.59904
5.7057
5.81652
5.93185
6.05252
3.05379
3.08428
3.11642
3.14959
3.18354
3.21821
3.25359
3.2897
3.32658
3.36427
3.40279
3.44218
3.48248
3.52372
3.56594
3.60918
3.65348
3.69889
3.74543
3.79315
3.8421
3.89233
3.94388
3.99683
4.05122
4.10711
4.16457
4.22366
4.28445
4.34701
4.41144
4.47781
4.5462
4.61671
4.68943
4.76448
4.84196
4.922
5.00473
5.09028
5.17879
5.27042
5.36533
5.46368
5.56561
5.67123
5.78045
5.89265
6.00496
2.87271
2.90421
2.93546
2.96697
2.99897
3.03157
3.06481
3.09876
3.13345
3.1689
3.20516
3.24224
3.28018
3.31901
3.35877
3.3995
3.44122
3.48398
3.52781
3.57276
3.61887
3.66618
3.71474
3.76461
3.81584
3.86849
3.92261
3.97826
4.03552
4.09445
4.15513
4.21765
4.28207
4.34848
4.41698
4.48767
4.56065
4.63605
4.71397
4.79455
4.87791
4.9642
5.05357
5.14616
5.2421
5.3415
5.44449
5.55142
5.6642
2.79877
2.82605
2.85486
2.8847
2.91538
2.9468
2.97895
3.01182
3.04545
3.07986
3.11505
3.15105
3.18789
3.22562
3.26425
3.30382
3.34436
3.3859
3.4285
3.47219
3.51699
3.56297
3.61016
3.65862
3.70841
3.75958
3.81218
3.86626
3.9219
3.97918
4.03816
4.09892
4.16153
4.22607
4.29264
4.36134
4.43228
4.50556
4.58129
4.6596
4.74062
4.8245
4.91137
5.00138
5.09465
5.19129
5.29134
5.39452
5.49908
2.67386
2.70255
2.7311
2.75998
2.78938
2.81939
2.85007
2.88144
2.91355
2.94641
2.98003
3.01444
3.04965
3.08572
3.12266
3.1605
3.19927
3.23901
3.27976
3.32155
3.36441
3.40839
3.45353
3.4999
3.54753
3.59647
3.64679
3.69853
3.75176
3.80655
3.86297
3.92109
3.98098
4.04273
4.10641
4.17214
4.24
4.31011
4.38256
4.45749
4.53502
4.61529
4.69845
4.78463
4.87399
4.96671
5.06301
5.16338
5.26976
2.53724
2.56175
2.58757
2.61434
2.64187
2.67011
2.69904
2.72868
2.75903
2.79009
2.82189
2.85444
2.88777
2.92191
2.95688
2.99271
3.02941
3.06704
3.10562
3.14519
3.18578
3.22742
3.27017
3.31407
3.35917
3.40551
3.45316
3.50215
3.55255
3.60443
3.65786
3.71289
3.76961
3.82808
3.88839
3.95063
4.0149
4.08129
4.14991
4.22088
4.29432
4.37037
4.44918
4.5309
4.61569
4.70372
4.79514
4.88983
4.98647
2.4666
2.49256
2.51853
2.54488
2.57176
2.59927
2.62742
2.65626
2.68578
2.716
2.74694
2.77862
2.81107
2.8443
2.87833
2.9132
2.94893
2.98556
3.02311
3.06162
3.10113
3.14166
3.18328
3.22601
3.26992
3.31503
3.36141
3.4091
3.45817
3.50867
3.56068
3.61426
3.66947
3.72639
3.7851
3.8457
3.90826
3.97289
4.03971
4.10881
4.18033
4.25441
4.33119
4.41084
4.49356
4.57957
4.66918
4.76296
4.86264
2.27067
2.29231
2.31518
2.33897
2.3635
2.38871
2.41457
2.44106
2.46819
2.49597
2.52442
2.55354
2.58336
2.6139
2.64518
2.67723
2.71007
2.74373
2.77824
2.81364
2.84994
2.8872
2.92544
2.96471
3.00506
3.04652
3.08915
3.13298
3.17807
3.22449
3.27229
3.32153
3.37227
3.42459
3.47855
3.53423
3.59174
3.65115
3.71256
3.77608
3.84183
3.90993
3.98054
4.05382
4.12996
4.2092
4.29177
4.37785
4.46667
2.24991
2.27292
2.29646
2.32056
2.34522
2.37044
2.39624
2.42263
2.44963
2.47727
2.50555
2.53449
2.56411
2.59444
2.6255
2.65732
2.68992
2.72334
2.7576
2.79274
2.82878
2.86575
2.90371
2.94269
2.98274
3.0239
3.0662
3.10971
3.15447
3.20054
3.24799
3.29686
3.34723
3.39916
3.45272
3.508
3.56507
3.62405
3.685
3.74805
3.81331
3.88091
3.951
4.02374
4.09933
4.17802
4.26021
4.3467
4.43984
2.00086
2.02278
2.04458
2.06656
2.08885
2.11154
2.13468
2.1583
2.18244
2.20712
2.23236
2.25817
2.28458
2.31162
2.33932
2.36768
2.39673
2.42652
2.45705
2.48836
2.52047
2.55342
2.58724
2.62198
2.65766
2.69433
2.73203
2.77079
2.81067
2.85172
2.894
2.93755
2.98243
3.02869
3.07642
3.12567
3.17652
3.22907
3.28338
3.33955
3.39769
3.4579
3.52032
3.58508
3.65232
3.72222
3.79495
3.87063
3.94889
2.00125
2.02183
2.04317
2.06503
2.08734
2.1101
2.1333
2.15699
2.18119
2.20591
2.23117
2.257
2.28343
2.31049
2.33818
2.36655
2.3956
2.42538
2.4559
2.4872
2.51931
2.55224
2.58605
2.62077
2.65644
2.6931
2.73078
2.76952
2.80939
2.85042
2.89267
2.9362
2.98106
3.0273
3.075
3.12422
3.17505
3.22756
3.28183
3.33796
3.39605
3.4562
3.51853
3.58315
3.65019
3.71976
3.79195
3.86676
3.94389
1.76107
1.78072
1.80021
1.8198
1.83964
1.8598
1.88032
1.90126
1.92262
1.94444
1.96674
1.98954
2.01286
2.03672
2.06115
2.08616
2.11178
2.13803
2.16494
2.19254
2.22084
2.24988
2.27969
2.3103
2.34174
2.37406
2.40727
2.44143
2.47657
2.51274
2.54999
2.58836
2.6279
2.66866
2.71071
2.7541
2.7989
2.84518
2.89301
2.94247
2.99365
3.04663
3.10151
3.15838
3.21732
3.27842
3.34173
3.40731
3.47554
1.73333
1.75112
1.76955
1.78847
1.8078
1.82753
1.84766
1.86821
1.8892
1.91064
1.93256
1.95496
1.97788
2.00133
2.02534
2.04992
2.0751
2.1009
2.12735
2.15447
2.18229
2.21083
2.24012
2.2702
2.3011
2.33285
2.36549
2.39906
2.43359
2.46913
2.50573
2.54344
2.58229
2.62234
2.66365
2.70628
2.7503
2.79577
2.84276
2.89134
2.94161
2.99364
3.04752
3.10334
3.16117
3.22107
3.28304
3.34689
3.41173
1.5302
1.54657
1.56307
1.57982
1.59688
1.61428
1.63204
1.65017
1.66869
1.68762
1.70698
1.72677
1.74701
1.76773
1.78893
1.81065
1.83289
1.85568
1.87905
1.90301
1.92757
1.95278
1.97866
2.00523
2.03252
2.06057
2.08941
2.11905
2.14955
2.18095
2.21328
2.24658
2.2809
2.31627
2.35276
2.39041
2.42928
2.46943
2.51093
2.55384
2.59822
2.64416
2.69173
2.741
2.79205
2.84494
2.89977
2.95671
3.0165
1.46243
1.47726
1.49262
1.5084
1.52457
1.5411
1.55799
1.57526
1.59291
1.61096
1.62942
1.64829
1.6676
1.68737
1.70761
1.72834
1.74957
1.77132
1.79362
1.81649
1.83994
1.86401
1.88871
1.91407
1.94012
1.9669
1.99442
2.02272
2.05183
2.0818
2.11266
2.14444
2.1772
2.21097
2.24579
2.28173
2.31883
2.35716
2.39677
2.43772
2.48008
2.52393
2.56934
2.61638
2.66512
2.71566
2.76804
2.82226
2.87792
1.29178
1.30533
1.31905
1.33304
1.34731
1.36189
1.37678
1.39201
1.40759
1.42352
1.43981
1.45648
1.47353
1.49099
1.50887
1.52718
1.54593
1.56515
1.58486
1.60506
1.62579
1.64705
1.66887
1.69128
1.7143
1.73796
1.76228
1.78728
1.81301
1.83949
1.86675
1.89484
1.92378
1.95362
1.98439
2.01615
2.04893
2.0828
2.1178
2.15398
2.19142
2.23016
2.2703
2.31188
2.355
2.39973
2.44619
2.49459
2.54554
1.19161
1.20371
1.21618
1.22897
1.24206
1.25545
1.26915
1.28316
1.2975
1.31216
1.32716
1.34251
1.35822
1.3743
1.39077
1.40764
1.42492
1.44264
1.4608
1.47942
1.49852
1.51811
1.53823
1.55888
1.5801
1.60191
1.62432
1.64737
1.67108
1.69549
1.72062
1.74651
1.77319
1.80069
1.82905
1.85832
1.88854
1.91976
1.95202
1.98538
2.01989
2.05562
2.09263
2.131
2.17079
2.21209
2.25498
2.29951
2.34545
1.04608
1.05689
1.06791
1.07914
1.09063
1.10237
1.11438
1.12666
1.13923
1.15209
1.16524
1.17871
1.19249
1.20661
1.22106
1.23586
1.25103
1.26658
1.28252
1.29887
1.31563
1.33284
1.35049
1.36863
1.38726
1.4064
1.42608
1.44632
1.46714
1.48856
1.51063
1.53336
1.55678
1.58093
1.60583
1.63153
1.65807
1.68548
1.71381
1.7431
1.77341
1.8048
1.83732
1.87104
1.90603
1.94237
1.98017
2.01959
2.06107
0.921983
0.931402
0.941042
0.950905
0.960998
0.971325
0.98189
0.992697
1.00375
1.01506
1.02664
1.0385
1.05063
1.06305
1.07578
1.08882
1.10218
1.11587
1.12991
1.14431
1.15908
1.17423
1.18979
1.20577
1.22218
1.23905
1.25638
1.27421
1.29255
1.31143
1.33087
1.3509
1.37154
1.39281
1.41475
1.4374
1.46078
1.48493
1.5099
1.53572
1.56244
1.59011
1.61879
1.64853
1.6794
1.71148
1.74482
1.7795
1.81537
0.793561
0.801653
0.809936
0.818418
0.827094
0.835969
0.845048
0.854331
0.863831
0.873557
0.883513
0.893704
0.904137
0.914822
0.925767
0.936981
0.948471
0.960251
0.97233
0.984717
0.997424
1.01046
1.02385
1.03759
1.05172
1.06623
1.08115
1.09649
1.11228
1.12852
1.14525
1.16249
1.18025
1.19856
1.21745
1.23694
1.25706
1.27785
1.29934
1.32157
1.34458
1.36841
1.39311
1.41874
1.44534
1.473
1.50179
1.53183
1.56338
0.654517
0.661253
0.66811
0.675113
0.682266
0.689577
0.69705
0.704696
0.712525
0.72054
0.728744
0.73714
0.745738
0.754545
0.763567
0.772811
0.782283
0.791994
0.801953
0.812167
0.822644
0.833396
0.844433
0.855769
0.867416
0.879386
0.891691
0.904345
0.917364
0.930764
0.944564
0.95878
0.973429
0.988533
1.00411
1.02019
1.03679
1.05394
1.07167
1.09002
1.109
1.12867
1.14907
1.17023
1.19221
1.21506
1.23884
1.26359
1.28924
0.534746
0.540109
0.545647
0.551326
0.557144
0.563096
0.569187
0.575425
0.581813
0.588351
0.595043
0.601894
0.608911
0.616099
0.623463
0.631007
0.638738
0.646665
0.654794
0.663131
0.671684
0.68046
0.68947
0.698724
0.708232
0.718004
0.728049
0.738379
0.749007
0.759948
0.771215
0.782821
0.794782
0.807114
0.819834
0.832962
0.846519
0.860527
0.875009
0.889991
0.905501
0.921573
0.938238
0.955536
0.973509
0.992206
1.01168
1.03201
1.05337
0.390054
0.394105
0.398187
0.402334
0.40657
0.410903
0.415343
0.419891
0.424545
0.429309
0.434186
0.439183
0.444301
0.449543
0.454914
0.460416
0.466056
0.471839
0.477769
0.48385
0.490089
0.496491
0.503064
0.509814
0.51675
0.523878
0.531205
0.538741
0.546494
0.554475
0.562695
0.571162
0.579889
0.588886
0.598167
0.607746
0.617639
0.627862
0.638432
0.649369
0.660693
0.672428
0.684599
0.697237
0.710373
0.724046
0.738294
0.753152
0.768594
0.270261
0.27282
0.275523
0.278337
0.281239
0.284224
0.28729
0.290429
0.293642
0.296933
0.300306
0.303762
0.307301
0.310926
0.314641
0.318448
0.322349
0.326349
0.33045
0.334656
0.338971
0.343399
0.347945
0.352614
0.35741
0.362339
0.367406
0.372617
0.377978
0.383498
0.389182
0.395038
0.401073
0.407295
0.413714
0.42034
0.427184
0.434256
0.441569
0.449136
0.45697
0.46509
0.473514
0.482262
0.491358
0.500834
0.510727
0.521113
0.532153
0.129324
0.130666
0.132007
0.133374
0.134773
0.136208
0.137675
0.139174
0.14071
0.142286
0.143902
0.145557
0.147251
0.148987
0.150767
0.152591
0.154461
0.156378
0.158344
0.16036
0.162428
0.16455
0.166729
0.168966
0.171264
0.173626
0.176053
0.17855
0.181118
0.183762
0.186485
0.189291
0.192182
0.195164
0.19824
0.201416
0.204696
0.208086
0.211591
0.215218
0.218974
0.222868
0.226908
0.231104
0.235469
0.240016
0.244766
0.249739
0.254931
-2.89632e-06
-5.80184e-06
-2.67574e-06
6.65904e-07
5.04604e-06
6.80676e-06
3.72286e-06
1.42975e-06
1.94845e-06
3.33013e-06
3.56934e-06
2.56382e-06
1.57553e-06
1.51762e-06
2.18473e-06
2.85639e-06
3.26357e-06
3.68548e-06
4.40587e-06
5.42876e-06
6.4858e-06
7.26093e-06
7.59851e-06
7.57641e-06
7.31529e-06
6.87274e-06
6.26519e-06
5.48295e-06
4.55377e-06
3.60561e-06
2.76088e-06
2.18677e-06
1.92139e-06
1.83922e-06
1.98745e-06
2.26548e-06
2.65142e-06
3.21095e-06
3.8187e-06
4.3766e-06
4.90101e-06
5.5366e-06
5.92806e-06
5.86436e-06
5.91099e-06
5.36598e-06
6.36748e-06
4.57436e-06
3.45134e-06
-0.129325
-0.130669
-0.132008
-0.133372
-0.134767
-0.136201
-0.137668
-0.139168
-0.140704
-0.142279
-0.143894
-0.145549
-0.147244
-0.14898
-0.150759
-0.152582
-0.154451
-0.156367
-0.158332
-0.160347
-0.162415
-0.164537
-0.166716
-0.168953
-0.171252
-0.173615
-0.176044
-0.178542
-0.181112
-0.183758
-0.186483
-0.18929
-0.192183
-0.195165
-0.198242
-0.201417
-0.204696
-0.208086
-0.21159
-0.215216
-0.218971
-0.222864
-0.226903
-0.231099
-0.235464
-0.240012
-0.244763
-0.249737
-0.25493
-0.27025
-0.272804
-0.27551
-0.278327
-0.281234
-0.284221
-0.28728
-0.290414
-0.293627
-0.296919
-0.300292
-0.303745
-0.307282
-0.310907
-0.31462
-0.318426
-0.322327
-0.326327
-0.330428
-0.334635
-0.33895
-0.34338
-0.347926
-0.352596
-0.357393
-0.362324
-0.367393
-0.372606
-0.377969
-0.38349
-0.389176
-0.395033
-0.401069
-0.407293
-0.413712
-0.420339
-0.427182
-0.434254
-0.441566
-0.449132
-0.456967
-0.465087
-0.47351
-0.482257
-0.491353
-0.500828
-0.510725
-0.521108
-0.532148
-0.39005
-0.394096
-0.398178
-0.402332
-0.406574
-0.410909
-0.415343
-0.419886
-0.424539
-0.429304
-0.434181
-0.439175
-0.444291
-0.449532
-0.454902
-0.460405
-0.466045
-0.471828
-0.477758
-0.48384
-0.49008
-0.496483
-0.503057
-0.509809
-0.516745
-0.523874
-0.531202
-0.538739
-0.546493
-0.554474
-0.562694
-0.571162
-0.579888
-0.588886
-0.598168
-0.607748
-0.617641
-0.627865
-0.638435
-0.649372
-0.660696
-0.672431
-0.684603
-0.697241
-0.710377
-0.724049
-0.738297
-0.753154
-0.768595
-0.53475
-0.540115
-0.54565
-0.55133
-0.557146
-0.563097
-0.569192
-0.575431
-0.581818
-0.588355
-0.595047
-0.601899
-0.608916
-0.616104
-0.623468
-0.631012
-0.638745
-0.646672
-0.654802
-0.66314
-0.671693
-0.68047
-0.68948
-0.698733
-0.708241
-0.718011
-0.728055
-0.738384
-0.74901
-0.759949
-0.771214
-0.782819
-0.794778
-0.807109
-0.819828
-0.832956
-0.846514
-0.860522
-0.875004
-0.889987
-0.905498
-0.921569
-0.938235
-0.955533
-0.973507
-0.992203
-1.01168
-1.03201
-1.05336
-0.654524
-0.661268
-0.668125
-0.675121
-0.682268
-0.689579
-0.697059
-0.704711
-0.712541
-0.720555
-0.728759
-0.737159
-0.745759
-0.754568
-0.763591
-0.772836
-0.78231
-0.792022
-0.801982
-0.812196
-0.822673
-0.833424
-0.844461
-0.855796
-0.867441
-0.879408
-0.89171
-0.90436
-0.917375
-0.930773
-0.94457
-0.958784
-0.973431
-0.988533
-1.00411
-1.02019
-1.03679
-1.05394
-1.07167
-1.09002
-1.109
-1.12867
-1.14907
-1.17023
-1.19221
-1.21506
-1.23884
-1.26359
-1.28924
-0.793554
-0.801649
-0.809935
-0.818415
-0.827092
-0.835969
-0.845048
-0.854335
-0.863839
-0.873568
-0.883525
-0.893717
-0.904153
-0.914839
-0.925786
-0.937
-0.948493
-0.960273
-0.972352
-0.984739
-0.997445
-1.01048
-1.02387
-1.03761
-1.05173
-1.06624
-1.08116
-1.0965
-1.11228
-1.12853
-1.14525
-1.16249
-1.18025
-1.19855
-1.21744
-1.23693
-1.25705
-1.27785
-1.29934
-1.32157
-1.34457
-1.3684
-1.39311
-1.41873
-1.44534
-1.473
-1.50179
-1.53182
-1.56338
-0.921976
-0.931389
-0.941032
-0.950902
-0.961002
-0.971329
-0.98189
-0.992695
-1.00375
-1.01507
-1.02665
-1.0385
-1.05064
-1.06306
-1.07579
-1.08883
-1.10219
-1.11588
-1.12992
-1.14432
-1.15908
-1.17424
-1.18979
-1.20577
-1.22218
-1.23904
-1.25638
-1.27421
-1.29255
-1.31143
-1.33087
-1.35089
-1.37153
-1.3928
-1.41475
-1.43739
-1.46077
-1.48493
-1.50989
-1.53571
-1.56243
-1.59011
-1.61878
-1.64853
-1.6794
-1.71147
-1.74482
-1.7795
-1.81537
-1.04608
-1.05689
-1.0679
-1.07914
-1.09063
-1.10237
-1.11438
-1.12666
-1.13922
-1.15208
-1.16524
-1.1787
-1.19248
-1.20659
-1.22105
-1.23585
-1.25102
-1.26656
-1.2825
-1.29885
-1.31562
-1.33282
-1.35047
-1.36861
-1.38724
-1.40638
-1.42606
-1.44629
-1.46711
-1.48854
-1.51061
-1.53334
-1.55676
-1.58091
-1.60581
-1.63151
-1.65805
-1.68546
-1.71379
-1.74308
-1.7734
-1.80479
-1.83731
-1.87103
-1.90602
-1.94236
-1.98016
-2.01958
-2.06106
-1.19161
-1.20371
-1.21618
-1.22897
-1.24206
-1.25545
-1.26915
-1.28316
-1.29749
-1.31215
-1.32715
-1.3425
-1.3582
-1.37429
-1.39076
-1.40762
-1.4249
-1.44262
-1.46078
-1.4794
-1.49849
-1.51809
-1.5382
-1.55886
-1.58008
-1.60188
-1.6243
-1.64734
-1.67106
-1.69546
-1.7206
-1.74649
-1.77316
-1.80067
-1.82903
-1.8583
-1.88852
-1.91974
-1.952
-1.98536
-2.01987
-2.0556
-2.09262
-2.13098
-2.17078
-2.21208
-2.25497
-2.29951
-2.34545
-1.29178
-1.30533
-1.31905
-1.33303
-1.3473
-1.36187
-1.37677
-1.392
-1.40757
-1.4235
-1.43979
-1.45646
-1.47352
-1.49097
-1.50885
-1.52716
-1.54591
-1.56513
-1.58483
-1.60504
-1.62576
-1.64702
-1.66884
-1.69125
-1.71428
-1.73793
-1.76225
-1.78726
-1.81298
-1.83946
-1.86673
-1.89482
-1.92376
-1.9536
-1.98437
-2.01613
-2.04891
-2.08278
-2.11778
-2.15396
-2.19139
-2.23014
-2.27028
-2.31186
-2.35498
-2.39971
-2.44618
-2.49458
-2.54553
-1.46243
-1.47726
-1.49262
-1.5084
-1.52457
-1.54109
-1.55799
-1.57525
-1.5929
-1.61095
-1.62941
-1.64828
-1.6676
-1.68736
-1.7076
-1.72832
-1.74955
-1.77131
-1.79361
-1.81648
-1.83993
-1.86399
-1.88869
-1.91405
-1.94011
-1.96688
-1.9944
-2.0227
-2.05182
-2.08179
-2.11265
-2.14443
-2.17719
-2.21096
-2.24579
-2.28173
-2.31883
-2.35716
-2.39676
-2.43771
-2.48008
-2.52392
-2.56933
-2.61637
-2.66512
-2.71565
-2.76803
-2.82226
-2.87792
-1.53019
-1.54656
-1.56305
-1.57981
-1.59687
-1.61427
-1.63203
-1.65016
-1.66869
-1.68762
-1.70697
-1.72676
-1.747
-1.76772
-1.78892
-1.81064
-1.83288
-1.85567
-1.87904
-1.90299
-1.92756
-1.95277
-1.97865
-2.00522
-2.03251
-2.06056
-2.08939
-2.11904
-2.14954
-2.18094
-2.21327
-2.24657
-2.28089
-2.31626
-2.35275
-2.3904
-2.42928
-2.46943
-2.51093
-2.55384
-2.59822
-2.64416
-2.69173
-2.741
-2.79204
-2.84494
-2.89976
-2.9567
-3.01649
-1.73333
-1.75111
-1.76955
-1.78847
-1.8078
-1.82753
-1.84766
-1.86821
-1.8892
-1.91064
-1.93255
-1.95496
-1.97787
-2.00133
-2.02534
-2.04992
-2.0751
-2.1009
-2.12735
-2.15447
-2.18229
-2.21083
-2.24012
-2.2702
-2.3011
-2.33285
-2.3655
-2.39906
-2.43359
-2.46914
-2.50574
-2.54344
-2.58229
-2.62235
-2.66366
-2.70629
-2.75031
-2.79577
-2.84276
-2.89135
-2.94162
-2.99365
-3.04753
-3.10335
-3.16118
-3.22108
-3.28304
-3.34689
-3.41173
-1.76108
-1.78074
-1.80022
-1.81981
-1.83965
-1.8598
-1.88033
-1.90126
-1.92262
-1.94444
-1.96674
-1.98954
-2.01286
-2.03672
-2.06115
-2.08616
-2.11178
-2.13803
-2.16495
-2.19254
-2.22085
-2.24989
-2.2797
-2.31031
-2.34175
-2.37407
-2.40728
-2.44144
-2.47658
-2.51275
-2.55
-2.58837
-2.62791
-2.66868
-2.71072
-2.75411
-2.79891
-2.84519
-2.89302
-2.94248
-2.99366
-3.04664
-3.10152
-3.15838
-3.21733
-3.27842
-3.34172
-3.40731
-3.47553
-2.00125
-2.02184
-2.04317
-2.06503
-2.08735
-2.1101
-2.13331
-2.157
-2.18119
-2.20591
-2.23118
-2.25702
-2.28345
-2.3105
-2.3382
-2.36656
-2.39561
-2.42539
-2.45592
-2.48722
-2.51932
-2.55226
-2.58607
-2.6208
-2.65647
-2.69312
-2.7308
-2.76955
-2.80941
-2.85045
-2.8927
-2.93623
-2.98108
-3.02733
-3.07502
-3.12425
-3.17507
-3.22758
-3.28185
-3.33798
-3.39607
-3.45622
-3.51854
-3.58316
-3.6502
-3.71977
-3.79196
-3.86677
-3.94389
-2.00085
-2.02278
-2.04458
-2.06656
-2.08885
-2.11154
-2.13468
-2.1583
-2.18244
-2.20712
-2.23236
-2.25818
-2.28459
-2.31164
-2.33933
-2.36769
-2.39675
-2.42653
-2.45707
-2.48838
-2.52049
-2.55344
-2.58727
-2.622
-2.65769
-2.69436
-2.73206
-2.77082
-2.8107
-2.85175
-2.89403
-2.93757
-2.98245
-3.02872
-3.07644
-3.12569
-3.17654
-3.22908
-3.28339
-3.33956
-3.3977
-3.45791
-3.52033
-3.58509
-3.65233
-3.72223
-3.79496
-3.87064
-3.94889
-2.24991
-2.27291
-2.29646
-2.32056
-2.34522
-2.37045
-2.39625
-2.42264
-2.44965
-2.47728
-2.50556
-2.53449
-2.56412
-2.59445
-2.62551
-2.65733
-2.68993
-2.72335
-2.75761
-2.79275
-2.82879
-2.86577
-2.90373
-2.94271
-2.98276
-3.02391
-3.06622
-3.10972
-3.15448
-3.20056
-3.248
-3.29687
-3.34724
-3.39916
-3.45272
-3.508
-3.56507
-3.62404
-3.685
-3.74805
-3.81331
-3.88091
-3.951
-4.02374
-4.09932
-4.17801
-4.2602
-4.3467
-4.43983
-2.27067
-2.2923
-2.31518
-2.33897
-2.36351
-2.38872
-2.41457
-2.44106
-2.4682
-2.49598
-2.52443
-2.55355
-2.58337
-2.61391
-2.64519
-2.67723
-2.71007
-2.74373
-2.77825
-2.81364
-2.84994
-2.8872
-2.92544
-2.96471
-3.00506
-3.04652
-3.08914
-3.13297
-3.17806
-3.22448
-3.27228
-3.32152
-3.37226
-3.42457
-3.47853
-3.53422
-3.59172
-3.65113
-3.71254
-3.77606
-3.8418
-3.90991
-3.98053
-4.05381
-4.12995
-4.20919
-4.29177
-4.37785
-4.46667
-2.4666
-2.49257
-2.51853
-2.54488
-2.57176
-2.59927
-2.62742
-2.65625
-2.68576
-2.71599
-2.74693
-2.77861
-2.81105
-2.84428
-2.87831
-2.91318
-2.94891
-2.98553
-3.02308
-3.06159
-3.1011
-3.14163
-3.18324
-3.22597
-3.26988
-3.31499
-3.36137
-3.40906
-3.45812
-3.50863
-3.56064
-3.61422
-3.66943
-3.72635
-3.78506
-3.84565
-3.90821
-3.97285
-4.03966
-4.10877
-4.18029
-4.25436
-4.33115
-4.41081
-4.49353
-4.57955
-4.66916
-4.76295
-4.86263
-2.53724
-2.56174
-2.58757
-2.61433
-2.64186
-2.6701
-2.69904
-2.72867
-2.75901
-2.79007
-2.82187
-2.85443
-2.88776
-2.9219
-2.95686
-2.99268
-3.02939
-3.06701
-3.10559
-3.14515
-3.18573
-3.22737
-3.27012
-3.31401
-3.35911
-3.40546
-3.4531
-3.50209
-3.5525
-3.60438
-3.65781
-3.71284
-3.76956
-3.82803
-3.88834
-3.95058
-4.01485
-4.08124
-4.14986
-4.22083
-4.29427
-4.37033
-4.44914
-4.53086
-4.61566
-4.7037
-4.79512
-4.88982
-4.98646
-2.67386
-2.70255
-2.7311
-2.75998
-2.78937
-2.81938
-2.85006
-2.88144
-2.91355
-2.9464
-2.98002
-3.01442
-3.04965
-3.08571
-3.12265
-3.16049
-3.19926
-3.239
-3.27974
-3.32153
-3.36439
-3.40836
-3.4535
-3.49986
-3.54749
-3.59644
-3.64675
-3.69849
-3.75171
-3.80651
-3.86293
-3.92105
-3.98094
-4.04269
-4.10638
-4.1721
-4.23997
-4.31007
-4.38253
-4.45746
-4.53499
-4.61526
-4.69841
-4.7846
-4.87397
-4.96669
-5.06299
-5.16337
-5.26975
-2.79877
-2.82605
-2.85486
-2.8847
-2.91538
-2.9468
-2.97895
-3.01183
-3.04546
-3.07986
-3.11504
-3.15105
-3.18789
-3.22561
-3.26424
-3.30381
-3.34435
-3.3859
-3.4285
-3.47218
-3.51698
-3.56296
-3.61015
-3.65861
-3.7084
-3.75956
-3.81216
-3.86624
-3.92188
-3.97916
-4.03814
-4.09889
-4.1615
-4.22605
-4.29262
-4.36132
-4.43225
-4.50553
-4.58126
-4.65957
-4.7406
-4.82447
-4.91134
-5.00134
-5.09462
-5.19127
-5.29132
-5.3945
-5.49906
-2.87272
-2.90421
-2.93546
-2.96697
-2.99897
-3.03156
-3.06481
-3.09876
-3.13345
-3.16891
-3.20517
-3.24225
-3.28019
-3.31902
-3.35879
-3.39951
-3.44123
-3.48399
-3.52782
-3.57278
-3.61888
-3.66619
-3.71475
-3.76462
-3.81585
-3.86849
-3.92261
-3.97826
-4.03552
-4.09445
-4.15514
-4.21765
-4.28207
-4.34849
-4.41699
-4.48768
-4.56066
-4.63606
-4.71398
-4.79455
-4.87791
-4.9642
-5.05357
-5.14616
-5.24209
-5.3415
-5.44449
-5.55142
-5.6642
-3.05381
-3.0843
-3.11643
-3.14959
-3.18354
-3.21821
-3.25359
-3.2897
-3.32658
-3.36426
-3.40278
-3.44217
-3.48247
-3.52372
-3.56594
-3.60918
-3.65348
-3.69888
-3.74543
-3.79316
-3.84211
-3.89233
-3.94389
-3.99683
-4.05122
-4.10712
-4.16458
-4.22366
-4.28444
-4.34701
-4.41144
-4.47781
-4.5462
-4.61671
-4.68944
-4.76448
-4.84197
-4.92201
-5.00474
-5.09028
-5.17879
-5.27042
-5.36533
-5.46368
-5.56561
-5.67122
-5.78044
-5.89263
-6.00494
-3.06307
-3.09858
-3.13309
-3.16744
-3.20204
-3.23712
-3.2728
-3.30916
-3.34628
-3.3842
-3.42295
-3.46258
-3.50312
-3.5446
-3.58708
-3.63058
-3.67514
-3.72081
-3.76764
-3.81565
-3.86489
-3.91541
-3.96728
-4.02054
-4.07525
-4.13148
-4.18927
-4.24871
-4.30985
-4.37279
-4.4376
-4.50436
-4.57316
-4.64409
-4.71724
-4.79273
-4.87068
-4.9512
-5.03442
-5.12048
-5.20953
-5.30173
-5.39726
-5.4963
-5.59904
-5.7057
-5.81652
-5.93184
-6.05251
-3.29348
-3.32746
-3.36244
-3.39824
-3.43478
-3.47207
-3.51014
-3.54902
-3.58874
-3.62935
-3.67087
-3.71334
-3.7568
-3.80128
-3.84682
-3.89347
-3.94125
-3.99023
-4.04044
-4.09192
-4.14473
-4.19891
-4.25453
-4.31165
-4.37032
-4.43062
-4.4926
-4.55634
-4.62191
-4.6894
-4.75891
-4.8305
-4.90428
-4.98034
-5.05879
-5.13975
-5.22334
-5.30969
-5.39894
-5.49124
-5.58676
-5.68567
-5.78818
-5.8945
-6.0049
-6.1197
-6.23938
-6.36487
-6.49859
-3.29947
-3.3322
-3.36632
-3.40152
-3.43766
-3.47468
-3.51256
-3.55131
-3.59096
-3.63151
-3.67301
-3.71546
-3.75891
-3.8034
-3.84896
-3.89562
-3.94343
-3.99243
-4.04266
-4.09417
-4.14701
-4.20122
-4.25687
-4.31402
-4.37272
-4.43305
-4.49507
-4.55884
-4.62445
-4.69198
-4.76152
-4.83316
-4.90698
-4.98308
-5.06157
-5.14257
-5.2262
-5.3126
-5.4019
-5.49426
-5.58983
-5.68881
-5.7914
-5.89782
-6.00834
-6.12327
-6.24296
-6.36762
-6.49608
-3.49003
-3.52714
-3.56418
-3.60171
-3.63999
-3.67911
-3.71912
-3.76006
-3.80197
-3.84485
-3.88874
-3.93366
-3.97964
-4.02673
-4.07495
-4.12434
-4.17495
-4.22682
-4.28001
-4.33454
-4.39048
-4.44787
-4.50679
-4.56729
-4.62945
-4.69332
-4.75898
-4.82649
-4.89595
-4.96745
-5.04107
-5.11691
-5.19506
-5.27563
-5.35873
-5.44448
-5.53302
-5.62449
-5.71903
-5.8168
-5.91798
-6.02276
-6.13134
-6.24397
-6.36091
-6.4825
-6.60923
-6.74216
-6.88461
-3.5449
-3.57832
-3.61402
-3.65125
-3.68966
-3.72912
-3.76958
-3.81102
-3.85346
-3.8969
-3.94136
-3.98688
-4.03348
-4.08119
-4.13006
-4.18012
-4.23141
-4.28399
-4.33789
-4.39316
-4.44986
-4.50803
-4.56774
-4.62906
-4.69205
-4.75679
-4.82333
-4.89176
-4.96216
-5.03462
-5.10924
-5.18611
-5.26532
-5.34697
-5.43119
-5.51811
-5.60784
-5.70054
-5.79635
-5.89543
-5.99796
-6.10412
-6.21412
-6.32816
-6.44649
-6.56933
-6.69685
-6.82882
-6.96278
-3.66545
-3.70515
-3.74439
-3.78398
-3.82427
-3.86541
-3.90747
-3.9505
-3.99453
-4.03959
-4.08571
-4.13291
-4.18122
-4.2307
-4.28136
-4.33326
-4.38643
-4.44094
-4.49681
-4.55411
-4.61288
-4.67319
-4.73509
-4.79865
-4.86396
-4.93107
-5.00005
-5.07098
-5.14396
-5.21908
-5.29643
-5.37611
-5.45822
-5.54287
-5.63017
-5.72027
-5.81329
-5.90938
-6.0087
-6.1114
-6.21766
-6.32767
-6.44164
-6.55975
-6.68222
-6.80928
-6.94122
-7.07877
-7.22494
-3.77884
-3.81504
-3.85361
-3.89371
-3.93501
-3.97735
-4.02071
-4.06507
-4.11045
-4.15688
-4.20438
-4.25298
-4.30272
-4.35365
-4.4058
-4.45922
-4.51394
-4.57004
-4.62754
-4.68651
-4.74699
-4.80905
-4.87275
-4.93816
-5.00537
-5.07443
-5.14541
-5.21841
-5.29351
-5.37081
-5.45041
-5.53241
-5.61691
-5.70401
-5.79386
-5.88657
-5.9823
-6.08118
-6.18338
-6.28906
-6.3984
-6.51159
-6.62882
-6.7503
-6.87618
-7.00661
-7.14158
-7.28054
-7.42055
-3.83174
-3.87404
-3.91579
-3.95782
-4.00047
-4.04391
-4.08824
-4.13351
-4.17977
-4.22706
-4.27542
-4.32488
-4.3755
-4.42731
-4.48036
-4.53469
-4.59035
-4.64739
-4.70588
-4.76585
-4.82735
-4.89046
-4.95524
-5.02177
-5.09011
-5.16034
-5.23253
-5.30676
-5.38313
-5.46174
-5.54269
-5.62607
-5.712
-5.80058
-5.89195
-5.98623
-6.08358
-6.18414
-6.28807
-6.39554
-6.50673
-6.62185
-6.74108
-6.86462
-6.99265
-7.12535
-7.26286
-7.40569
-7.55658
-4.00039
-4.03983
-4.08168
-4.125
-4.16941
-4.21478
-4.2611
-4.30838
-4.35667
-4.40603
-4.45647
-4.50806
-4.56084
-4.61486
-4.67017
-4.72681
-4.78483
-4.8443
-4.90526
-4.96777
-5.03188
-5.09767
-5.16519
-5.23453
-5.30577
-5.37898
-5.45422
-5.5316
-5.61121
-5.69315
-5.77753
-5.86445
-5.95401
-6.04635
-6.14158
-6.23986
-6.34134
-6.44616
-6.5545
-6.66654
-6.78246
-6.90249
-7.02683
-7.15571
-7.28933
-7.42785
-7.57122
-7.71854
-7.86561
-3.98906
-4.03557
-4.08071
-4.12558
-4.17072
-4.21645
-4.26293
-4.31031
-4.35866
-4.40805
-4.45853
-4.51014
-4.56295
-4.61699
-4.67232
-4.72899
-4.78704
-4.84653
-4.90752
-4.97006
-5.03421
-5.10002
-5.16758
-5.23695
-5.30822
-5.38146
-5.45674
-5.53416
-5.6138
-5.69578
-5.78019
-5.86715
-5.95676
-6.04914
-6.14442
-6.24275
-6.34427
-6.44915
-6.55755
-6.66965
-6.78565
-6.90577
-7.03025
-7.15934
-7.29333
-7.43257
-7.57752
-7.7289
-7.88822
4.19711
4.24195
4.28722
4.33314
4.37985
4.42744
4.47599
4.52556
4.57622
4.62801
4.68095
4.73511
4.79053
4.84725
4.90532
4.9648
5.02575
5.08821
5.15224
5.2179
5.28523
5.35433
5.42525
5.49808
5.5729
5.64979
5.72883
5.8101
5.89372
5.97978
6.0684
6.1597
6.25378