/*--------------------------------*- C++ -*----------------------------------*\
  =========                 |
  \\      /  F ield         | OpenFOAM: The Open Source CFD Toolbox
   \\    /   O peration     | Website:  https://openfoam.org
    \\  /    A nd           | Version:  6
     \\/     M anipulation  |
\*---------------------------------------------------------------------------*/
FoamFile
{
    version     2.0;
    format      ascii;
    class       volVectorField;
    location    "90";
    object      C;
}
// * * * * * * * * * * * * * * * * * * * * * * * * * * * * * * * * * * * * * //

dimensions      [0 1 0 0 0 0 0];

internalField   nonuniform List<vector> 
13524
(
(-0.711301 -0.695295 6.75422e-19)
(-0.704006 -0.688164 0)
(-0.696711 -0.681033 -7.13773e-19)
(-0.689416 -0.673901 0)
(-0.68212 -0.66677 0)
(-0.674825 -0.659639 -7.11932e-19)
(-0.66753 -0.652508 2.23177e-18)
(-0.660235 -0.645377 0)
(-0.652939 -0.638246 -2.28002e-18)
(-0.645644 -0.631115 0)
(-0.638349 -0.623984 8.01045e-19)
(-0.631054 -0.616853 0)
(-0.623758 -0.609722 -1.56466e-18)
(-0.616463 -0.602591 0)
(-0.609168 -0.595459 0)
(-0.601873 -0.588328 -1.24579e-18)
(-0.594577 -0.581197 0)
(-0.587282 -0.574066 0)
(-0.579987 -0.566935 4.38402e-19)
(-0.572692 -0.559804 0)
(-0.565396 -0.552673 0)
(-0.558101 -0.545542 0)
(-0.550806 -0.538411 0)
(-0.543511 -0.53128 8.83942e-19)
(-0.536215 -0.524149 0)
(-0.52892 -0.517018 0)
(-0.521625 -0.509887 0)
(-0.51433 -0.502756 0)
(-0.507035 -0.495625 0)
(-0.499739 -0.488494 1.4663e-18)
(-0.492444 -0.481362 1.51192e-18)
(-0.485149 -0.474231 -2.02907e-18)
(-0.477854 -0.4671 2.05931e-18)
(-0.470559 -0.459969 1.58e-18)
(-0.463263 -0.452838 0)
(-0.455968 -0.445707 0)
(-0.448673 -0.438576 1.11933e-18)
(-0.441378 -0.431445 5.68515e-19)
(-0.434083 -0.424314 1.13106e-18)
(-0.426787 -0.417183 0)
(-0.419492 -0.410052 1.7422e-18)
(-0.412197 -0.402921 -1.79689e-18)
(-0.404902 -0.39579 -2.44596e-18)
(-0.397607 -0.388659 -6.28452e-19)
(-0.390312 -0.381528 0)
(-0.383017 -0.374398 1.30295e-18)
(-0.375722 -0.367267 6.63657e-19)
(-0.368426 -0.360136 0)
(-0.361131 -0.353005 0)
(-0.726894 -0.678874 6.99516e-19)
(-0.719439 -0.671911 -1.41314e-18)
(-0.711983 -0.664948 7.86165e-19)
(-0.704528 -0.657986 -4.83001e-20)
(-0.697073 -0.651023 -7.52619e-19)
(-0.689618 -0.64406 0)
(-0.682163 -0.637097 0)
(-0.674707 -0.630135 -2.27961e-18)
(-0.667252 -0.623172 0)
(-0.659797 -0.616209 7.92417e-19)
(-0.652342 -0.609247 -8.00923e-19)
(-0.644887 -0.602284 0)
(-0.637432 -0.595321 -4.8312e-20)
(-0.629976 -0.588359 1.65529e-18)
(-0.622521 -0.581396 -1.23132e-18)
(-0.615066 -0.574433 0)
(-0.607611 -0.567471 0)
(-0.600156 -0.560508 2.59913e-18)
(-0.592701 -0.553546 1.29084e-18)
(-0.585245 -0.546583 0)
(-0.57779 -0.53962 -9.947e-19)
(-0.570335 -0.532658 -9.09159e-19)
(-0.56288 -0.525695 9.20563e-19)
(-0.555425 -0.518732 0)
(-0.54797 -0.51177 1.44062e-18)
(-0.540515 -0.504807 0)
(-0.533059 -0.497844 -5.08852e-19)
(-0.525604 -0.490882 1.44948e-18)
(-0.518149 -0.483919 1.56632e-18)
(-0.510694 -0.476956 0)
(-0.503239 -0.469994 0)
(-0.495784 -0.463031 0)
(-0.488329 -0.456069 5.027e-19)
(-0.480874 -0.449106 -1.57983e-18)
(-0.473419 -0.442143 0)
(-0.465963 -0.435181 2.20403e-18)
(-0.458508 -0.428218 0)
(-0.451053 -0.421256 0)
(-0.443598 -0.414293 0)
(-0.436143 -0.40733 0)
(-0.428688 -0.400368 0)
(-0.421233 -0.393405 0)
(-0.413778 -0.386443 0)
(-0.406323 -0.37948 -1.25671e-18)
(-0.398868 -0.372518 -6.63842e-19)
(-0.391413 -0.365555 0)
(-0.383958 -0.358593 -6.87751e-19)
(-0.376503 -0.35163 0)
(-0.369048 -0.344668 0)
(-0.742172 -0.662165 -1.39899e-18)
(-0.73456 -0.655374 1.46139e-18)
(-0.726949 -0.648583 7.37844e-19)
(-0.719337 -0.641792 1.44198e-18)
(-0.711725 -0.635 0)
(-0.704113 -0.628209 7.60211e-19)
(-0.696501 -0.621418 -7.19689e-19)
(-0.688889 -0.614626 0)
(-0.681277 -0.607835 7.84078e-19)
(-0.673665 -0.601044 -2.32887e-18)
(-0.666054 -0.594252 4.83091e-20)
(-0.658442 -0.587461 0)
(-0.65083 -0.58067 -8.18505e-19)
(-0.643218 -0.573878 1.65524e-18)
(-0.635606 -0.567087 4.42636e-19)
(-0.627994 -0.560296 1.74135e-18)
(-0.620382 -0.553505 0)
(-0.61277 -0.546713 8.66351e-19)
(-0.605159 -0.539922 0)
(-0.597547 -0.533131 0)
(-0.589935 -0.526339 0)
(-0.582323 -0.519548 -4.78729e-19)
(-0.574711 -0.512757 -1.84107e-18)
(-0.567099 -0.505965 -9.32244e-19)
(-0.559488 -0.499174 1.39224e-18)
(-0.551876 -0.492383 0)
(-0.544264 -0.485592 -9.69337e-19)
(-0.536652 -0.4788 0)
(-0.52904 -0.472009 0)
(-0.521428 -0.465218 0)
(-0.513817 -0.458427 0)
(-0.506205 -0.451635 0)
(-0.498593 -0.444844 5.51034e-19)
(-0.490981 -0.438053 0)
(-0.483369 -0.431262 0)
(-0.475758 -0.42447 2.77914e-18)
(-0.468146 -0.417679 0)
(-0.460534 -0.410888 1.18518e-18)
(-0.452922 -0.404097 -1.75686e-18)
(-0.44531 -0.397305 1.73687e-18)
(-0.437699 -0.390514 1.24199e-18)
(-0.430087 -0.383723 0)
(-0.422475 -0.376932 0)
(-0.414863 -0.370141 0)
(-0.407252 -0.363349 0)
(-0.39964 -0.356558 0)
(-0.392028 -0.349767 2.65413e-18)
(-0.384416 -0.342976 7.00394e-19)
(-0.376805 -0.336185 0)
(-0.757016 -0.645065 0)
(-0.749252 -0.638449 0)
(-0.741488 -0.631833 0)
(-0.733724 -0.625217 7.45164e-19)
(-0.725959 -0.618601 7.52618e-19)
(-0.718195 -0.611986 1.47216e-18)
(-0.710431 -0.60537 7.68015e-19)
(-0.702667 -0.598754 -7.75969e-19)
(-0.694903 -0.592138 7.35795e-19)
(-0.687139 -0.585522 -8.40724e-19)
(-0.679375 -0.578906 -8.00922e-19)
(-0.671611 -0.57229 8.09624e-19)
(-0.663847 -0.565674 0)
(-0.656082 -0.559058 8.27646e-19)
(-0.648318 -0.552442 0)
(-0.640554 -0.545826 0)
(-0.63279 -0.53921 0)
(-0.625026 -0.532594 -8.66377e-19)
(-0.617262 -0.525979 1.29084e-18)
(-0.609498 -0.519363 0)
(-0.601734 -0.512747 -8.98049e-19)
(-0.59397 -0.506131 2.67915e-18)
(-0.586206 -0.499515 0)
(-0.578441 -0.492899 4.41971e-19)
(-0.570677 -0.486283 0)
(-0.562913 -0.479667 5.02497e-19)
(-0.555149 -0.473051 0)
(-0.547385 -0.466436 -1.54616e-18)
(-0.539621 -0.45982 0)
(-0.531857 -0.453204 -5.29026e-19)
(-0.524093 -0.446588 0)
(-0.516329 -0.439972 5.43488e-19)
(-0.508565 -0.433356 1.0054e-18)
(-0.500801 -0.42674 0)
(-0.493037 -0.420124 1.70066e-18)
(-0.485273 -0.413509 0)
(-0.477509 -0.406893 0)
(-0.469745 -0.400277 0)
(-0.461981 -0.393661 0)
(-0.454217 -0.387045 0)
(-0.446453 -0.380429 0)
(-0.438689 -0.373814 -1.89346e-18)
(-0.430925 -0.367198 -1.23493e-18)
(-0.423161 -0.360582 0)
(-0.415397 -0.353966 6.63841e-19)
(-0.407633 -0.34735 0)
(-0.399869 -0.340734 -6.8775e-19)
(-0.392105 -0.334119 0)
(-0.384341 -0.327503 0)
(-0.771534 -0.627689 6.99488e-19)
(-0.763621 -0.621251 7.30691e-19)
(-0.755708 -0.614814 0)
(-0.747795 -0.608376 -7.45136e-19)
(-0.739882 -0.601938 -7.5259e-19)
(-0.731969 -0.595501 7.11903e-19)
(-0.724056 -0.589063 0)
(-0.716143 -0.582625 0)
(-0.70823 -0.576187 0)
(-0.700317 -0.56975 0)
(-0.692404 -0.563312 -8.00892e-19)
(-0.684491 -0.556874 4.83106e-20)
(-0.676578 -0.550437 -7.70187e-19)
(-0.668665 -0.543999 -8.27615e-19)
(-0.660752 -0.537561 2.55916e-18)
(-0.652839 -0.531123 2.58785e-18)
(-0.644926 -0.524686 -1.30862e-18)
(-0.637013 -0.518248 9.14664e-19)
(-0.6291 -0.51181 -4.62479e-19)
(-0.621187 -0.505373 1.30662e-18)
(-0.613274 -0.498935 -8.4969e-19)
(-0.605361 -0.492497 -1.81825e-18)
(-0.597448 -0.48606 4.36099e-19)
(-0.589535 -0.479622 0)
(-0.581622 -0.473184 -4.47966e-19)
(-0.573709 -0.466747 0)
(-0.565796 -0.460309 0)
(-0.557883 -0.453871 2.01313e-18)
(-0.54997 -0.447433 -2.51376e-18)
(-0.542057 -0.440996 -1.00967e-18)
(-0.534144 -0.434558 1.5117e-18)
(-0.526231 -0.42812 -3.65923e-18)
(-0.518318 -0.421683 -5.5103e-19)
(-0.510405 -0.415245 5.10473e-19)
(-0.502492 -0.408808 0)
(-0.494579 -0.40237 -1.67714e-18)
(-0.486666 -0.395932 -1.70284e-18)
(-0.478754 -0.389495 -2.27362e-18)
(-0.470841 -0.383057 0)
(-0.462928 -0.376619 0)
(-0.455015 -0.370182 -1.24198e-18)
(-0.447102 -0.363744 -1.31063e-18)
(-0.439189 -0.357307 -1.23488e-18)
(-0.431276 -0.350869 7.00904e-19)
(-0.423363 -0.344431 0)
(-0.41545 -0.337994 -6.27152e-19)
(-0.407538 -0.331556 0)
(-0.399625 -0.325119 0)
(-0.391712 -0.318681 1.37873e-18)
(-0.785599 -0.609945 0)
(-0.777541 -0.603689 -1.46143e-18)
(-0.769484 -0.597433 -7.37864e-19)
(-0.761427 -0.591177 0)
(-0.75337 -0.584922 0)
(-0.745312 -0.578666 0)
(-0.737255 -0.57241 1.53603e-18)
(-0.729198 -0.566155 -4.83051e-20)
(-0.72114 -0.559899 0)
(-0.713083 -0.553643 7.44107e-19)
(-0.705026 -0.547387 -1.55353e-18)
(-0.696969 -0.541132 0)
(-0.688911 -0.534876 1.63706e-18)
(-0.680854 -0.52862 0)
(-0.672797 -0.522365 1.27963e-18)
(-0.66474 -0.516109 0)
(-0.656682 -0.509853 1.26035e-18)
(-0.648625 -0.503597 0)
(-0.640568 -0.497342 1.38748e-18)
(-0.632511 -0.491086 4.67772e-19)
(-0.624453 -0.48483 8.49723e-19)
(-0.616396 -0.478575 0)
(-0.608339 -0.472319 0)
(-0.600282 -0.466063 0)
(-0.592224 -0.459807 -1.39228e-18)
(-0.584167 -0.453552 -5.02497e-19)
(-0.57611 -0.447296 0)
(-0.568053 -0.44104 9.82431e-19)
(-0.559996 -0.434785 5.22107e-19)
(-0.551938 -0.428529 1.49039e-18)
(-0.543881 -0.422273 -1.02395e-18)
(-0.535824 -0.416018 0)
(-0.527767 -0.409762 2.05914e-18)
(-0.51971 -0.403506 0)
(-0.511652 -0.397251 0)
(-0.503595 -0.390995 0)
(-0.495538 -0.384739 0)
(-0.487481 -0.378484 -1.72946e-18)
(-0.479424 -0.372228 -1.20352e-18)
(-0.471367 -0.365972 0)
(-0.463309 -0.359717 6.21012e-19)
(-0.455252 -0.353461 1.2623e-18)
(-0.447195 -0.347206 0)
(-0.439138 -0.34095 -1.90925e-18)
(-0.431081 -0.334694 0)
(-0.423024 -0.328439 0)
(-0.414967 -0.322183 -1.3271e-18)
(-0.40691 -0.315928 1.35243e-18)
(-0.398852 -0.309672 0)
(-0.799325 -0.591935 0)
(-0.791127 -0.585864 4.82977e-20)
(-0.782929 -0.579793 0)
(-0.774731 -0.573722 -1.44199e-18)
(-0.766533 -0.567651 -1.5052e-18)
(-0.758335 -0.56158 0)
(-0.750137 -0.555509 -7.19693e-19)
(-0.741939 -0.549438 0)
(-0.733741 -0.543367 -4.83064e-20)
(-0.725543 -0.537296 1.6331e-18)
(-0.717345 -0.531225 -8.00903e-19)
(-0.709147 -0.525154 -2.3805e-18)
(-0.700949 -0.519083 0)
(-0.692751 -0.513012 0)
(-0.684553 -0.506941 -4.42638e-19)
(-0.676355 -0.50087 -2.09215e-18)
(-0.668156 -0.494799 4.04e-19)
(-0.659958 -0.488728 8.18036e-19)
(-0.65176 -0.482657 0)
(-0.643562 -0.476586 -4.67762e-19)
(-0.635364 -0.470515 8.98027e-19)
(-0.627166 -0.464444 1.81827e-18)
(-0.618968 -0.458373 -9.2054e-19)
(-0.61077 -0.452302 0)
(-0.602572 -0.446231 0)
(-0.594374 -0.44016 0)
(-0.586176 -0.434089 1.42985e-18)
(-0.577978 -0.428018 0)
(-0.56978 -0.421947 -5.22096e-19)
(-0.561582 -0.415876 1.00969e-18)
(-0.553384 -0.409805 0)
(-0.545186 -0.403734 1.0386e-18)
(-0.536988 -0.397663 1.55641e-18)
(-0.52879 -0.391592 0)
(-0.520592 -0.385521 5.66874e-19)
(-0.512394 -0.37945 0)
(-0.504196 -0.373379 -5.35381e-19)
(-0.495999 -0.367308 1.72942e-18)
(-0.487801 -0.361238 -1.20349e-18)
(-0.479603 -0.355167 0)
(-0.471405 -0.349096 0)
(-0.463207 -0.343025 6.31137e-19)
(-0.455009 -0.336954 -1.87654e-18)
(-0.446811 -0.330883 -6.52529e-19)
(-0.438613 -0.324812 1.32765e-18)
(-0.430415 -0.318741 1.3511e-18)
(-0.422217 -0.31267 6.39339e-19)
(-0.414019 -0.306599 -1.3524e-18)
(-0.405822 -0.300528 2.09232e-18)
(-0.812581 -0.573582 0)
(-0.804247 -0.567699 0)
(-0.795913 -0.561817 2.26189e-18)
(-0.787579 -0.555934 1.44202e-18)
(-0.779245 -0.550051 -1.45693e-18)
(-0.770911 -0.544168 -7.6023e-19)
(-0.762577 -0.538285 -1.53602e-18)
(-0.754243 -0.532403 0)
(-0.745909 -0.52652 0)
(-0.737575 -0.520637 7.92413e-19)
(-0.729241 -0.514754 0)
(-0.720907 -0.508872 8.09621e-19)
(-0.712573 -0.502989 7.70214e-19)
(-0.704239 -0.497106 8.27643e-19)
(-0.695905 -0.491223 0)
(-0.687571 -0.48534 0)
(-0.679237 -0.479458 8.08016e-19)
(-0.670903 -0.473575 3.60707e-19)
(-0.662569 -0.467692 -8.76665e-19)
(-0.654235 -0.461809 8.87219e-19)
(-0.645901 -0.455927 4.73185e-19)
(-0.637567 -0.450044 0)
(-0.629233 -0.444161 2.76167e-18)
(-0.620899 -0.438278 4.90299e-19)
(-0.612565 -0.432396 0)
(-0.604231 -0.426513 0)
(-0.595897 -0.42063 -5.08849e-19)
(-0.587564 -0.414747 -1.03077e-18)
(-0.57923 -0.408865 -1.99174e-18)
(-0.570896 -0.402982 1.49039e-18)
(-0.562562 -0.397099 0)
(-0.554228 -0.391216 1.03862e-18)
(-0.545894 -0.385334 0)
(-0.53756 -0.379451 1.11769e-18)
(-0.529226 -0.373568 -5.66886e-19)
(-0.520892 -0.367685 -1.10201e-18)
(-0.512558 -0.361803 -2.23829e-18)
(-0.504224 -0.35592 0)
(-0.49589 -0.350037 -1.15515e-18)
(-0.487556 -0.344155 6.11219e-19)
(-0.479223 -0.338272 0)
(-0.470889 -0.332389 5.82773e-19)
(-0.462555 -0.326507 0)
(-0.454221 -0.320624 6.04159e-19)
(-0.445887 -0.314741 -1.32768e-18)
(-0.437553 -0.308859 0)
(-0.429219 -0.302976 2.01485e-18)
(-0.420886 -0.297093 0)
(-0.412552 -0.291211 0)
(-0.825455 -0.554953 6.99512e-19)
(-0.816989 -0.549261 1.41313e-18)
(-0.808523 -0.54357 -2.16529e-18)
(-0.800057 -0.537878 7.45161e-19)
(-0.791591 -0.532186 -7.52615e-19)
(-0.783125 -0.526494 0)
(-0.774659 -0.520803 2.30404e-18)
(-0.766193 -0.515111 -2.3279e-18)
(-0.757727 -0.509419 -2.30399e-18)
(-0.749261 -0.503728 8.40721e-19)
(-0.740795 -0.498036 0)
(-0.732329 -0.492344 0)
(-0.723863 -0.486652 -9.6624e-20)
(-0.715397 -0.480961 0)
(-0.706931 -0.475269 4.42646e-19)
(-0.698465 -0.469577 1.29397e-18)
(-0.689998 -0.463886 0)
(-0.681532 -0.458194 -2.19009e-18)
(-0.673066 -0.452502 1.75333e-18)
(-0.6646 -0.446811 4.19448e-19)
(-0.656134 -0.441119 -8.98045e-19)
(-0.647668 -0.435427 9.09154e-19)
(-0.639202 -0.429735 0)
(-0.630736 -0.424044 0)
(-0.62227 -0.418352 -1.88859e-18)
(-0.613804 -0.41266 -1.91331e-18)
(-0.605338 -0.406969 1.93872e-18)
(-0.596872 -0.401277 -2.0132e-18)
(-0.588406 -0.395585 -5.22106e-19)
(-0.57994 -0.389894 1.49039e-18)
(-0.571474 -0.384202 0)
(-0.563008 -0.37851 1.58211e-18)
(-0.554542 -0.372819 -4.83502e-20)
(-0.546077 -0.367127 0)
(-0.537611 -0.361435 0)
(-0.529145 -0.355744 -1.10201e-18)
(-0.520679 -0.350052 -1.7029e-18)
(-0.512213 -0.34436 0)
(-0.503747 -0.338669 0)
(-0.495281 -0.332977 0)
(-0.486815 -0.327285 1.76629e-18)
(-0.478349 -0.321594 -1.21392e-18)
(-0.469883 -0.315902 6.90033e-19)
(-0.461417 -0.310211 6.52542e-19)
(-0.452951 -0.304519 6.63839e-19)
(-0.444485 -0.298827 -6.75565e-19)
(-0.43602 -0.293136 0)
(-0.427554 -0.287444 -1.40082e-18)
(-0.419088 -0.281753 0)
(-0.837876 -0.536027 0)
(-0.829282 -0.530529 0)
(-0.820689 -0.525031 0)
(-0.812096 -0.519534 0)
(-0.803502 -0.514036 -1.45691e-18)
(-0.794909 -0.508539 -7.11919e-19)
(-0.786315 -0.503041 -7.197e-19)
(-0.777722 -0.497543 7.75957e-19)
(-0.769128 -0.492046 0)
(-0.760535 -0.486548 0)
(-0.751942 -0.481051 0)
(-0.743348 -0.475553 0)
(-0.734755 -0.470055 1.58872e-18)
(-0.726161 -0.464558 8.27633e-19)
(-0.717568 -0.45906 2.06826e-18)
(-0.708974 -0.453563 -7.98212e-19)
(-0.700381 -0.448065 0)
(-0.691788 -0.442567 2.19007e-18)
(-0.683194 -0.43707 -8.76655e-19)
(-0.674601 -0.431572 0)
(-0.666007 -0.426075 1.37121e-18)
(-0.657414 -0.420577 -1.33955e-18)
(-0.648821 -0.41508 0)
(-0.640227 -0.409582 8.83927e-19)
(-0.631634 -0.404084 0)
(-0.62304 -0.398587 -2.36745e-18)
(-0.614447 -0.393089 -1.9387e-18)
(-0.605854 -0.387592 -5.15378e-19)
(-0.59726 -0.382094 0)
(-0.588667 -0.376597 1.00969e-18)
(-0.580073 -0.371099 0)
(-0.57148 -0.365601 1.53374e-18)
(-0.562887 -0.360104 0)
(-0.554293 -0.354606 2.13864e-18)
(-0.5457 -0.349109 0)
(-0.537107 -0.343611 0)
(-0.528513 -0.338114 0)
(-0.51992 -0.332616 -6.40963e-19)
(-0.511327 -0.327119 -1.2035e-18)
(-0.502733 -0.321621 1.22242e-18)
(-0.49414 -0.316124 0)
(-0.485547 -0.310626 0)
(-0.476953 -0.305128 1.28329e-18)
(-0.46836 -0.299631 0)
(-0.459767 -0.294133 0)
(-0.451174 -0.288636 -1.30272e-18)
(-0.44258 -0.283138 2.65417e-18)
(-0.433987 -0.277641 7.00404e-19)
(-0.425394 -0.272144 0)
(-0.849811 -0.516783 6.75416e-19)
(-0.841095 -0.511483 7.30713e-19)
(-0.83238 -0.506182 0)
(-0.823664 -0.500882 -7.45158e-19)
(-0.814948 -0.495582 1.45692e-18)
(-0.806232 -0.490282 0)
(-0.797516 -0.484982 -7.6801e-19)
(-0.7888 -0.479681 1.50362e-18)
(-0.780085 -0.474381 4.83064e-20)
(-0.771369 -0.469081 -7.92411e-19)
(-0.762653 -0.463781 0)
(-0.753937 -0.45848 0)
(-0.745221 -0.45318 8.18524e-19)
(-0.736505 -0.44788 -8.2764e-19)
(-0.727789 -0.44258 0)
(-0.719074 -0.437279 -8.46536e-19)
(-0.710358 -0.431979 -8.56332e-19)
(-0.701642 -0.426679 0)
(-0.692926 -0.421379 0)
(-0.68421 -0.416079 -4.6777e-19)
(-0.675495 -0.410778 4.24859e-19)
(-0.666779 -0.405478 0)
(-0.658063 -0.400178 4.36113e-19)
(-0.649347 -0.394878 -1.37423e-18)
(-0.640631 -0.389577 1.39227e-18)
(-0.631915 -0.384277 4.54159e-19)
(-0.6232 -0.378977 -5.08848e-19)
(-0.614484 -0.373677 1.44947e-18)
(-0.605768 -0.368377 -9.95867e-19)
(-0.597052 -0.363076 0)
(-0.588337 -0.357776 0)
(-0.579621 -0.352476 1.08697e-18)
(-0.570905 -0.347176 5.51046e-19)
(-0.562189 -0.341876 0)
(-0.553473 -0.336575 -2.17082e-18)
(-0.544758 -0.331275 -5.75183e-19)
(-0.536042 -0.325975 -1.75126e-18)
(-0.527326 -0.320675 -1.18521e-18)
(-0.51861 -0.315375 0)
(-0.509895 -0.310075 1.22243e-18)
(-0.501179 -0.304774 0)
(-0.492463 -0.299474 1.21392e-18)
(-0.483748 -0.294174 -1.33168e-18)
(-0.475032 -0.288874 1.30508e-18)
(-0.466316 -0.283574 -2.55857e-18)
(-0.457601 -0.278274 0)
(-0.448885 -0.272974 -6.3935e-19)
(-0.440169 -0.267673 1.40082e-18)
(-0.431454 -0.262373 2.80594e-18)
(-0.861372 -0.497316 0)
(-0.852538 -0.492215 1.41308e-18)
(-0.843703 -0.487115 -8.34436e-19)
(-0.834869 -0.482014 0)
(-0.826034 -0.476914 4.83013e-20)
(-0.8172 -0.471813 1.52041e-18)
(-0.808366 -0.466712 1.53597e-18)
(-0.799531 -0.461612 7.7594e-19)
(-0.790697 -0.456511 0)
(-0.781862 -0.451411 -1.53647e-18)
(-0.773028 -0.44631 0)
(-0.764194 -0.44121 -7.61283e-19)
(-0.755359 -0.436109 -4.8312e-20)
(-0.746525 -0.431008 -8.27615e-19)
(-0.73769 -0.425908 1.23127e-18)
(-0.728856 -0.420807 0)
(-0.720022 -0.415707 1.2603e-18)
(-0.711187 -0.410606 0)
(-0.702353 -0.405506 1.29079e-18)
(-0.693518 -0.400405 1.72606e-18)
(-0.684684 -0.395304 4.7317e-19)
(-0.67585 -0.390204 -9.09124e-19)
(-0.667015 -0.385103 0)
(-0.658181 -0.380003 4.90283e-19)
(-0.649346 -0.374902 8.95932e-19)
(-0.640512 -0.369802 -1.4591e-18)
(-0.631678 -0.364701 4.60496e-19)
(-0.622843 -0.359601 0)
(-0.614009 -0.3545 0)
(-0.605175 -0.349399 0)
(-0.59634 -0.344299 -5.3613e-19)
(-0.587506 -0.339198 0)
(-0.578672 -0.334098 0)
(-0.569837 -0.328997 1.02095e-18)
(-0.561003 -0.323897 -1.65225e-18)
(-0.552169 -0.318796 1.05362e-18)
(-0.543334 -0.313696 5.35374e-19)
(-0.5345 -0.308595 0)
(-0.525666 -0.303495 6.01736e-19)
(-0.516831 -0.298394 0)
(-0.507997 -0.293294 -1.24198e-18)
(-0.499163 -0.288193 0)
(-0.490329 -0.283093 -6.41632e-19)
(-0.481494 -0.277992 1.30504e-18)
(-0.47266 -0.272892 -1.94306e-18)
(-0.463826 -0.267791 0)
(-0.454992 -0.262691 6.87725e-19)
(-0.446157 -0.25759 7.00389e-19)
(-0.437323 -0.25249 0)
(-0.872435 -0.477559 -6.99507e-19)
(-0.863487 -0.472661 -7.3071e-19)
(-0.854539 -0.467763 0)
(-0.845591 -0.462865 0)
(-0.836644 -0.457967 0)
(-0.827696 -0.453069 0)
(-0.818748 -0.448171 0)
(-0.8098 -0.443273 0)
(-0.800852 -0.438375 0)
(-0.791904 -0.433477 0)
(-0.782956 -0.428579 0)
(-0.774008 -0.423681 0)
(-0.765061 -0.418783 -1.68535e-18)
(-0.756113 -0.413885 0)
(-0.747165 -0.408987 -1.32793e-18)
(-0.738217 -0.404089 0)
(-0.729269 -0.399191 1.76097e-18)
(-0.720321 -0.394294 0)
(-0.711373 -0.389396 -4.6249e-19)
(-0.702425 -0.384498 2.61331e-18)
(-0.693478 -0.3796 -4.73182e-19)
(-0.68453 -0.374702 0)
(-0.675582 -0.369804 -4.36111e-19)
(-0.666634 -0.364906 9.32261e-19)
(-0.657686 -0.360008 0)
(-0.648738 -0.35511 -5.02492e-19)
(-0.639791 -0.350212 -5.08846e-19)
(-0.630843 -0.345314 -4.83387e-20)
(-0.621895 -0.340416 1.99173e-18)
(-0.612947 -0.335518 2.0194e-18)
(-0.603999 -0.330621 -1.02394e-18)
(-0.595052 -0.325723 5.43482e-19)
(-0.586104 -0.320825 -5.51044e-19)
(-0.577156 -0.315927 0)
(-0.568208 -0.311029 0)
(-0.55926 -0.306131 4.83581e-20)
(-0.550313 -0.301233 -1.1675e-18)
(-0.541365 -0.296335 0)
(-0.532417 -0.291437 -1.70852e-18)
(-0.523469 -0.28654 -6.11214e-19)
(-0.514521 -0.281642 1.24201e-18)
(-0.505574 -0.276744 -6.31145e-19)
(-0.496626 -0.271846 6.41648e-19)
(-0.487678 -0.266948 -1.90923e-18)
(-0.478731 -0.26205 1.32767e-18)
(-0.469783 -0.257152 1.4479e-18)
(-0.460835 -0.252255 4.83947e-20)
(-0.451887 -0.247357 0)
(-0.44294 -0.242459 -7.13583e-19)
(-0.88311 -0.457589 0)
(-0.874052 -0.452896 1.41308e-18)
(-0.864995 -0.448203 0)
(-0.855937 -0.44351 0)
(-0.84688 -0.438817 -4.83013e-20)
(-0.837823 -0.434124 7.60201e-19)
(-0.828765 -0.429431 0)
(-0.819708 -0.424737 0)
(-0.810651 -0.420044 0)
(-0.801593 -0.415351 -8.4069e-19)
(-0.792536 -0.410658 0)
(-0.783478 -0.405965 0)
(-0.774421 -0.401272 0)
(-0.765364 -0.396579 8.2761e-19)
(-0.756306 -0.391885 -4.4263e-19)
(-0.747249 -0.387192 -1.19728e-18)
(-0.738192 -0.382499 4.5231e-19)
(-0.729134 -0.377806 -1.27535e-18)
(-0.720077 -0.373113 0)
(-0.71102 -0.36842 0)
(-0.701962 -0.363727 0)
(-0.692905 -0.359034 0)
(-0.683848 -0.354341 0)
(-0.67479 -0.349647 -9.32231e-19)
(-0.665733 -0.344954 -1.39222e-18)
(-0.656676 -0.340261 0)
(-0.647619 -0.335568 9.69324e-19)
(-0.638561 -0.330875 1.44942e-18)
(-0.629504 -0.326182 5.22086e-19)
(-0.620447 -0.321489 1.53867e-18)
(-0.611389 -0.316796 1.51169e-18)
(-0.602332 -0.312103 0)
(-0.593275 -0.307409 5.51027e-19)
(-0.584217 -0.302716 0)
(-0.57516 -0.298023 0)
(-0.566103 -0.29333 1.10197e-18)
(-0.557046 -0.288637 0)
(-0.547988 -0.283944 0)
(-0.538931 -0.279251 0)
(-0.529874 -0.274558 5.62826e-19)
(-0.520817 -0.269865 0)
(-0.51176 -0.265172 0)
(-0.502702 -0.260479 1.28326e-18)
(-0.493645 -0.255786 0)
(-0.484588 -0.251093 6.15426e-19)
(-0.475531 -0.2464 0)
(-0.466474 -0.241707 0)
(-0.457416 -0.237014 -7.00385e-19)
(-0.448359 -0.23232 -1.37872e-18)
(-0.893276 -0.437357 -7.23597e-19)
(-0.884114 -0.432872 -7.30707e-19)
(-0.874952 -0.428386 -4.82989e-20)
(-0.865791 -0.4239 7.45152e-19)
(-0.856629 -0.419415 4.83013e-20)
(-0.847467 -0.414929 0)
(-0.838306 -0.410444 1.53601e-18)
(-0.829144 -0.405958 0)
(-0.819983 -0.401472 7.84088e-19)
(-0.810821 -0.396987 -2.3289e-18)
(-0.801659 -0.392501 -1.55351e-18)
(-0.792498 -0.388015 -8.09611e-19)
(-0.783336 -0.38353 0)
(-0.774174 -0.379044 -4.83135e-20)
(-0.765013 -0.374559 0)
(-0.755851 -0.370073 7.98212e-19)
(-0.74669 -0.365587 -2.52065e-18)
(-0.737528 -0.361102 0)
(-0.728366 -0.356616 -4.62488e-19)
(-0.719205 -0.35213 -9.35532e-19)
(-0.710043 -0.347645 -1.32289e-18)
(-0.700882 -0.343159 0)
(-0.69172 -0.338674 1.88942e-18)
(-0.682558 -0.334188 1.37422e-18)
(-0.673397 -0.329702 -4.96309e-19)
(-0.664235 -0.325217 0)
(-0.655074 -0.320731 -1.42986e-18)
(-0.645912 -0.316246 -5.15378e-19)
(-0.636751 -0.31176 -5.221e-19)
(-0.627589 -0.307274 -4.80675e-19)
(-0.618427 -0.302789 0)
(-0.609266 -0.298303 -5.43479e-19)
(-0.600104 -0.293818 0)
(-0.590943 -0.289332 -2.13864e-18)
(-0.581781 -0.284846 1.60393e-18)
(-0.57262 -0.280361 0)
(-0.563458 -0.275875 1.11913e-18)
(-0.554297 -0.27139 -1.1852e-18)
(-0.545135 -0.266904 -6.01749e-19)
(-0.535974 -0.262419 0)
(-0.526812 -0.257933 -2.38727e-18)
(-0.517651 -0.253447 -1.21391e-18)
(-0.508489 -0.248962 0)
(-0.499328 -0.244476 -1.25669e-18)
(-0.490166 -0.239991 -1.94311e-18)
(-0.481005 -0.235505 0)
(-0.471843 -0.23102 0)
(-0.462682 -0.226534 7.00404e-19)
(-0.453521 -0.222049 -6.65177e-19)
(-0.903038 -0.416926 0)
(-0.893777 -0.41265 7.78989e-19)
(-0.884515 -0.408374 -2.16521e-18)
(-0.875253 -0.404098 -7.45136e-19)
(-0.865991 -0.399822 4.83013e-20)
(-0.856729 -0.395545 -4.83025e-20)
(-0.847468 -0.391269 7.67987e-19)
(-0.838206 -0.386993 0)
(-0.828944 -0.382717 4.83064e-20)
(-0.819682 -0.378441 1.53647e-18)
(-0.810421 -0.374165 0)
(-0.801159 -0.369889 0)
(-0.791897 -0.365613 -2.40718e-18)
(-0.782635 -0.361337 -4.83135e-20)
(-0.773374 -0.357061 0)
(-0.764112 -0.352785 0)
(-0.75485 -0.348509 -1.30862e-18)
(-0.745589 -0.344233 -1.73269e-18)
(-0.736327 -0.339956 0)
(-0.727065 -0.33568 1.30662e-18)
(-0.717803 -0.331404 0)
(-0.708542 -0.327128 -4.78725e-19)
(-0.69928 -0.322852 -9.20527e-19)
(-0.690018 -0.318576 9.80567e-19)
(-0.680756 -0.3143 -1.44056e-18)
(-0.671495 -0.310024 0)
(-0.662233 -0.305748 1.42983e-18)
(-0.652971 -0.301472 -5.15367e-19)
(-0.64371 -0.297196 -5.22089e-19)
(-0.634448 -0.29292 5.29007e-19)
(-0.625186 -0.288644 -1.5117e-18)
(-0.615925 -0.284368 1.58206e-18)
(-0.606663 -0.280092 5.51029e-19)
(-0.597401 -0.275816 -1.62812e-18)
(-0.58814 -0.27154 -5.66867e-19)
(-0.578878 -0.267264 0)
(-0.569616 -0.262988 1.16747e-18)
(-0.560355 -0.258711 0)
(-0.551093 -0.254435 0)
(-0.541831 -0.250159 1.78523e-18)
(-0.53257 -0.245883 0)
(-0.523308 -0.241607 -1.26226e-18)
(-0.514047 -0.237331 -1.87652e-18)
(-0.504785 -0.233055 -1.25666e-18)
(-0.495523 -0.228779 6.63817e-19)
(-0.486262 -0.224503 -1.35109e-18)
(-0.477 -0.220227 -6.87725e-19)
(-0.467739 -0.215951 0)
(-0.458477 -0.211675 -7.13564e-19)
(-0.912285 -0.396259 0)
(-0.902928 -0.392195 0)
(-0.893571 -0.388131 -4.82989e-20)
(-0.884215 -0.384067 -6.96848e-19)
(-0.874858 -0.380003 -7.52602e-19)
(-0.865502 -0.375939 -1.47213e-18)
(-0.856145 -0.371875 0)
(-0.846788 -0.367811 2.27955e-18)
(-0.837432 -0.363746 1.56817e-18)
(-0.828075 -0.359682 0)
(-0.818719 -0.355618 4.83091e-20)
(-0.809362 -0.351554 0)
(-0.800005 -0.34749 -2.40722e-18)
(-0.790649 -0.343426 1.70357e-18)
(-0.781292 -0.339362 0)
(-0.771936 -0.335298 -1.19731e-18)
(-0.762579 -0.331234 2.11664e-18)
(-0.753223 -0.327169 0)
(-0.743866 -0.323105 0)
(-0.73451 -0.319041 0)
(-0.725153 -0.314977 2.64576e-18)
(-0.715796 -0.310913 1.8666e-18)
(-0.70644 -0.306849 4.84435e-19)
(-0.697083 -0.302785 4.90291e-19)
(-0.687727 -0.298721 -1.39225e-18)
(-0.67837 -0.294657 -1.91328e-18)
(-0.669014 -0.290592 0)
(-0.659657 -0.286528 -5.15375e-19)
(-0.650301 -0.282464 0)
(-0.640944 -0.2784 0)
(-0.631588 -0.274336 0)
(-0.622231 -0.270272 0)
(-0.612875 -0.266208 1.60476e-18)
(-0.603518 -0.262144 5.10481e-19)
(-0.594162 -0.25808 0)
(-0.584805 -0.254016 0)
(-0.575449 -0.249952 0)
(-0.566092 -0.245888 5.92596e-19)
(-0.556736 -0.241823 6.01746e-19)
(-0.547379 -0.237759 0)
(-0.538023 -0.233695 1.242e-18)
(-0.528666 -0.229631 -6.31138e-19)
(-0.51931 -0.225567 6.41642e-19)
(-0.509953 -0.221503 0)
(-0.500597 -0.217439 0)
(-0.491241 -0.213375 0)
(-0.481884 -0.209311 2.01481e-18)
(-0.472528 -0.205247 7.004e-19)
(-0.463172 -0.201183 -7.13576e-19)
(-0.921112 -0.375406 0)
(-0.911665 -0.371556 -7.30699e-19)
(-0.902218 -0.367706 0)
(-0.892771 -0.363856 0)
(-0.883324 -0.360005 2.25779e-18)
(-0.873876 -0.356155 0)
(-0.864429 -0.352305 -2.25568e-18)
(-0.854982 -0.348455 -7.27643e-19)
(-0.845535 -0.344604 0)
(-0.836088 -0.340754 0)
(-0.826641 -0.336904 1.6018e-18)
(-0.817194 -0.333054 8.09602e-19)
(-0.807747 -0.329203 -4.8312e-20)
(-0.7983 -0.325353 0)
(-0.788852 -0.321503 -1.23128e-18)
(-0.779405 -0.317653 8.94836e-19)
(-0.769958 -0.313802 8.56315e-19)
(-0.760511 -0.309952 0)
(-0.751064 -0.306102 4.62483e-19)
(-0.741617 -0.302252 4.67761e-19)
(-0.73217 -0.298401 0)
(-0.722723 -0.294551 9.09134e-19)
(-0.713276 -0.290701 0)
(-0.703829 -0.286851 0)
(-0.694381 -0.283001 4.96303e-19)
(-0.684934 -0.27915 9.56634e-19)
(-0.675487 -0.2753 1.01768e-18)
(-0.66604 -0.27145 -1.44944e-18)
(-0.656593 -0.2676 1.4696e-18)
(-0.647146 -0.263749 0)
(-0.637699 -0.259899 0)
(-0.628252 -0.256049 0)
(-0.618805 -0.252199 0)
(-0.609358 -0.248349 0)
(-0.599911 -0.244498 1.60391e-18)
(-0.590464 -0.240648 1.67716e-18)
(-0.581017 -0.236798 0)
(-0.57157 -0.232948 0)
(-0.562123 -0.229098 6.01743e-19)
(-0.552676 -0.225247 1.78525e-18)
(-0.543229 -0.221397 0)
(-0.533782 -0.217547 0)
(-0.524335 -0.213697 0)
(-0.514888 -0.209847 0)
(-0.505441 -0.205996 1.8947e-18)
(-0.495994 -0.202146 6.7555e-19)
(-0.486547 -0.198296 1.37546e-18)
(-0.4771 -0.194446 6.51997e-19)
(-0.467653 -0.190596 -4.84031e-20)
(-0.929417 -0.354346 1.39899e-18)
(-0.919885 -0.350712 2.8262e-18)
(-0.910353 -0.347078 7.37845e-19)
(-0.90082 -0.343444 -7.45143e-19)
(-0.891288 -0.339809 0)
(-0.881756 -0.336175 -7.60213e-19)
(-0.872223 -0.332541 0)
(-0.862691 -0.328907 -2.27954e-18)
(-0.853159 -0.325272 2.30393e-18)
(-0.843626 -0.321638 0)
(-0.834094 -0.318004 -8.009e-19)
(-0.824562 -0.31437 4.83106e-20)
(-0.81503 -0.310735 -8.18507e-19)
(-0.805497 -0.307101 -2.43456e-18)
(-0.795965 -0.303467 4.90952e-19)
(-0.786433 -0.299833 0)
(-0.7769 -0.296198 4.52316e-19)
(-0.767368 -0.292564 -4.57337e-19)
(-0.757836 -0.28893 -2.62993e-18)
(-0.748304 -0.285296 4.67761e-19)
(-0.738771 -0.281661 -1.84437e-18)
(-0.729239 -0.278027 -3.25446e-18)
(-0.719707 -0.274393 -4.36104e-19)
(-0.710175 -0.270759 9.32246e-19)
(-0.700642 -0.267124 -9.92606e-19)
(-0.69111 -0.26349 1.0533e-18)
(-0.681578 -0.259856 0)
(-0.672046 -0.256222 0)
(-0.662513 -0.252588 0)
(-0.652981 -0.248953 0)
(-0.643449 -0.245319 0)
(-0.633917 -0.241685 0)
(-0.624384 -0.238051 0)
(-0.614852 -0.234416 0)
(-0.60532 -0.230782 0)
(-0.595788 -0.227148 0)
(-0.586256 -0.223514 0)
(-0.576723 -0.21988 -1.68105e-18)
(-0.567191 -0.216245 0)
(-0.557659 -0.212611 0)
(-0.548127 -0.208977 1.86299e-18)
(-0.538595 -0.205343 -6.31135e-19)
(-0.529063 -0.201709 -1.28328e-18)
(-0.51953 -0.198074 1.9092e-18)
(-0.509998 -0.19444 0)
(-0.500466 -0.190806 0)
(-0.490934 -0.187172 0)
(-0.481402 -0.183538 0)
(-0.47187 -0.179904 0)
(-0.93723 -0.333092 -6.99495e-19)
(-0.927618 -0.329676 -4.82977e-20)
(-0.918005 -0.32626 -7.37845e-19)
(-0.908393 -0.322844 -7.45143e-19)
(-0.89878 -0.319427 0)
(-0.889168 -0.316011 -4.83025e-20)
(-0.879556 -0.312595 -4.83038e-20)
(-0.869943 -0.309179 7.75948e-19)
(-0.860331 -0.305762 7.84079e-19)
(-0.850718 -0.302346 0)
(-0.841106 -0.29893 -2.4027e-18)
(-0.831493 -0.295513 8.09602e-19)
(-0.821881 -0.292097 -4.8312e-20)
(-0.812269 -0.288681 -1.65525e-18)
(-0.802656 -0.285265 -8.85273e-19)
(-0.793044 -0.281848 -7.98202e-19)
(-0.783431 -0.278432 -9.04632e-19)
(-0.773819 -0.275016 1.32369e-18)
(-0.764207 -0.2716 0)
(-0.754594 -0.268183 1.30664e-18)
(-0.744982 -0.264767 0)
(-0.735369 -0.261351 0)
(-0.725757 -0.257935 -1.8894e-18)
(-0.716145 -0.254518 0)
(-0.706532 -0.251102 1.88855e-18)
(-0.69692 -0.247686 0)
(-0.687307 -0.24427 0)
(-0.677695 -0.240853 1.54612e-18)
(-0.668083 -0.237437 0)
(-0.65847 -0.234021 -2.01936e-18)
(-0.648858 -0.230605 0)
(-0.639246 -0.227188 5.43473e-19)
(-0.629633 -0.223772 2.10744e-18)
(-0.620021 -0.220356 0)
(-0.610409 -0.21694 0)
(-0.600796 -0.213523 -5.75172e-19)
(-0.591184 -0.210107 0)
(-0.581572 -0.206691 1.72941e-18)
(-0.571959 -0.203275 5.53376e-19)
(-0.562347 -0.199859 1.78524e-18)
(-0.552735 -0.196442 1.24199e-18)
(-0.543122 -0.193026 0)
(-0.53351 -0.18961 0)
(-0.523898 -0.186194 0)
(-0.514286 -0.182778 0)