/*--------------------------------*- C++ -*----------------------------------*\
  =========                 |
  \\      /  F ield         | OpenFOAM: The Open Source CFD Toolbox
   \\    /   O peration     | Website:  https://openfoam.org
    \\  /    A nd           | Version:  6
     \\/     M anipulation  |
\*---------------------------------------------------------------------------*/
FoamFile
{
    version     2.0;
    format      ascii;
    class       volScalarField;
    location    "120";
    object      T;
}
// * * * * * * * * * * * * * * * * * * * * * * * * * * * * * * * * * * * * * //

dimensions      [0 0 0 1 0 0 0];

internalField   nonuniform List<scalar> 
13524
(
0.0439762
0.133075
0.223151
0.314206
0.406248
0.49929
0.593352
0.688452
0.784611
0.881854
0.980203
1.07968
1.18032
1.28215
1.38519
1.48946
1.59502
1.70187
1.81006
1.91962
2.03059
2.143
2.25688
2.37229
2.48926
2.60782
2.72804
2.84995
2.9736
3.09904
3.22633
3.35551
3.48666
3.61983
3.75507
3.89247
4.03208
4.17398
4.31824
4.46495
4.61419
4.76605
4.92062
5.078
5.2383
5.40163
5.56812
5.73791
5.91118
0.0441617
0.133451
0.223628
0.314738
0.406811
0.499872
0.593945
0.689052
0.785216
0.882462
0.980814
1.0803
1.18094
1.28276
1.3858
1.49008
1.59563
1.70249
1.81068
1.92024
2.03121
2.14361
2.2575
2.37291
2.48987
2.60844
2.72865
2.85056
2.97421
3.09965
3.22694
3.35613
3.48728
3.62044
3.75569
3.89308
4.03269
4.17459
4.31886
4.46557
4.6148
4.76666
4.92123
5.07861
5.2389
5.40223
5.56869
5.73842
5.9115
0.0440377
0.133241
0.223399
0.314513
0.406596
0.499668
0.59375
0.688864
0.785033
0.882283
0.980637
1.08012
1.18076
1.28259
1.38563
1.48991
1.59546
1.70232
1.81051
1.92007
2.03104
2.14344
2.25733
2.37274
2.4897
2.60827
2.72848
2.85039
2.97404
3.09948
3.22677
3.35596
3.48711
3.62027
3.75552
3.89291
4.03252
4.17442
4.31869
4.4654
4.61463
4.76649
4.92105
5.07843
5.23872
5.40203
5.56848
5.73819
5.91131
0.0441878
0.133527
0.223749
0.314896
0.406998
0.500082
0.594171
0.689291
0.785465
0.882718
0.981075
1.08056
1.1812
1.28303
1.38607
1.49035
1.5959
1.70276
1.81095
1.92051
2.03148
2.14389
2.25777
2.37318
2.49014
2.60871
2.72893
2.85084
2.97449
3.09993
3.22722
3.3564
3.48755
3.62072
3.75596
3.89336
4.03297
4.17487
4.31913
4.46584
4.61507
4.76693
4.92149
5.07887
5.23915
5.40246
5.56889
5.73856
5.91155
0.0440473
0.133269
0.223443
0.31457
0.406666
0.499747
0.593837
0.688957
0.785131
0.882385
0.980742
1.08023
1.18087
1.2827
1.38574
1.49002
1.59557
1.70243
1.81062
1.92018
2.03115
2.14356
2.25744
2.37285
2.48981
2.60838
2.7286
2.8505
2.97416
3.0996
3.22689
3.35607
3.48722
3.62039
3.75563
3.89303
4.03264
4.17454
4.3188
4.46551
4.61474
4.7666
4.92116
5.07853
5.23882
5.40212
5.56856
5.73824
5.91133
0.0441783
0.133504
0.223714
0.314852
0.406949
0.500028
0.594115
0.689233
0.785405
0.882657
0.981013
1.0805
1.18114
1.28297
1.38601
1.49029
1.59584
1.7027
1.81089
1.92045
2.03142
2.14383
2.25771
2.37312
2.49008
2.60865
2.72887
2.85077
2.97442
3.09987
3.22716
3.35635
3.48749
3.62066
3.7559
3.8933
4.03291
4.17481
4.31907
4.46578
4.61501
4.76687
4.92143
5.07881
5.23909
5.4024
5.56884
5.73852
5.91154
0.0440247
0.133204
0.223342
0.314441
0.406514
0.49958
0.593657
0.688768
0.784936
0.882185
0.980539
1.08002
1.18067
1.28249
1.38553
1.48981
1.59536
1.70222
1.81041
1.91997
2.03094
2.14335
2.25723
2.37264
2.4896
2.60817
2.72839
2.8503
2.97395
3.09939
3.22668
3.35587
3.48701
3.62018
3.75542
3.89282
4.03243
4.17433
4.31859
4.4653
4.61454
4.76639
4.92096
5.07834
5.23863
5.40194
5.5684
5.73813
5.91128
0.0441094
0.133345
0.223496
0.314591
0.406656
0.499712
0.593783
0.688888
0.785052
0.882297
0.980649
1.08013
1.18077
1.2826
1.38564
1.48992
1.59547
1.70232
1.81051
1.92008
2.03104
2.14345
2.25734
2.37274
2.48971
2.60827
2.72849
2.8504
2.97405
3.09949
3.22678
3.35597
3.48712
3.62028
3.75553
3.89292
4.03253
4.17443
4.31869
4.4654
4.61464
4.7665
4.92107
5.07845
5.23874
5.40207
5.56854
5.73828
5.91141
0.0440277
0.13318
0.223285
0.314355
0.406405
0.499453
0.593517
0.688619
0.78478
0.882025
0.980376
1.07986
1.1805
1.28232
1.38536
1.48964
1.59519
1.70205
1.81024
1.9198
2.03076
2.14317
2.25706
2.37246
2.48943
2.608
2.72821
2.85012
2.97377
3.09921
3.2265
3.35569
3.48684
3.62
3.75525
3.89264
4.03225
4.17415
4.31842
4.46513
4.61436
4.76622
4.92079
5.07817
5.23847
5.4018
5.56828
5.73806
5.91127
0.0439979
0.133129
0.223229
0.314299
0.406351
0.499401
0.593468
0.688571
0.784733
0.881978
0.980329
1.07981
1.18045
1.28228
1.38531
1.48959
1.59514
1.702
1.81019
1.91975
2.03072
2.14313
2.25701
2.37242
2.48938
2.60795
2.72816
2.85007
2.97372
3.09917
3.22646
3.35564
3.48679
3.61996
3.7552
3.8926
4.03221
4.17411
4.31837
4.46508
4.61432
4.76617
4.92074
5.07813
5.23842
5.40175
5.56823
5.738
5.91122
0.0441565
0.133446
0.223628
0.314744
0.406821
0.499887
0.593964
0.689074
0.78524
0.882488
0.980841
1.08032
1.18097
1.28279
1.38583
1.49011
1.59566
1.70252
1.81071
1.92027
2.03123
2.14364
2.25753
2.37293
2.4899
2.60847
2.72868
2.85059
2.97424
3.09968
3.22697
3.35616
3.48731
3.62047
3.75572
3.89311
4.03272
4.17462
4.31888
4.46559
4.61483
4.76669
4.92126
5.07864
5.23893
5.40225
5.56871
5.73842
5.91149
0.0440448
0.133254
0.223414
0.314529
0.406614
0.499687
0.59377
0.688885
0.785057
0.882307
0.980663
1.08015
1.18079
1.28262
1.38565
1.48993
1.59549
1.70234
1.81053
1.92009
2.03106
2.14347
2.25735
2.37276
2.48972
2.60829
2.7285
2.85041
2.97406
3.09951
3.22679
3.35598
3.48713
3.6203
3.75554
3.89294
4.03255
4.17445
4.31871
4.46542
4.61466
4.76651
4.92108
5.07846
5.23874
5.40205
5.5685
5.73821
5.91132
0.0441692
0.13349
0.223701
0.314842
0.406942
0.500024
0.594114
0.689233
0.785406
0.882659
0.981016
1.0805
1.18115
1.28297
1.38601
1.49029
1.59584
1.7027
1.81089
1.92045
2.03141
2.14382
2.25771
2.37311
2.49008
2.60864
2.72886
2.85077
2.97442
3.09986
3.22715
3.35634
3.48749
3.62065
3.7559
3.89329
4.0329
4.1748
4.31907
4.46578
4.61501
4.76687
4.92143
5.07881
5.23909
5.4024
5.56883
5.73851
5.91152
0.0440535
0.133277
0.223448
0.314573
0.406667
0.499747
0.593836
0.688956
0.78513
0.882383
0.98074
1.08023
1.18087
1.28269
1.38573
1.49001
1.59556
1.70242
1.81061
1.92017
2.03114
2.14354
2.25743
2.37283
2.4898
2.60837
2.72858
2.85049
2.97414
3.09958
3.22687
3.35606
3.48721
3.62037
3.75562
3.89301
4.03262
4.17452
4.31879
4.4655
4.61474
4.76659
4.92116
5.07853
5.23882
5.40212
5.56856
5.73825
5.91134
0.0441587
0.133466
0.22367
0.314806
0.406901
0.49998
0.594066
0.689183
0.785356
0.882607
0.980963
1.08045
1.18109
1.28291
1.38595
1.49023
1.59578
1.70264
1.81083
1.92039
2.03135
2.14376
2.25764
2.37305
2.49001
2.60858
2.7288
2.8507
2.97435
3.0998
3.22709
3.35628
3.48742
3.62059
3.75584
3.89323
4.03284
4.17474
4.31901
4.46572
4.61495
4.76681
4.92138
5.07876
5.23904
5.40235
5.56879
5.73847
5.9115
0.0440464
0.133251
0.223404
0.314513
0.406592
0.49966
0.593739
0.688851
0.785018
0.882266
0.980619
1.0801
1.18074
1.28257
1.3856
1.48988
1.59543
1.70228
1.81047
1.92003
2.031
2.14341
2.25729
2.3727
2.48966
2.60823
2.72844
2.85035
2.974
3.09944
3.22673
3.35592
3.48707
3.62023
3.75548
3.89288
4.03249
4.17439
4.31865
4.46536
4.61461
4.76646
4.92103
5.07841
5.23871
5.40202
5.56848
5.7382
5.91132
0.0441312
0.133395
0.223562
0.314667
0.406738
0.499797
0.593869
0.688974
0.785136
0.88238
0.980729
1.08021
1.18085
1.28267
1.3857
1.48998
1.59553
1.70238
1.81057
1.92013
2.0311
2.1435
2.25739
2.37279
2.48976
2.60832
2.72854
2.85045
2.9741
3.09954
3.22683
3.35602
3.48717
3.62033
3.75558
3.89298
4.03259
4.17449
4.31875
4.46547
4.61471
4.76657
4.92114
5.07853
5.23883
5.40215
5.56862
5.73835
5.91145
0.044017
0.133166
0.223272
0.314343
0.406392
0.499438
0.593499
0.688597
0.784754
0.881993
0.980339
1.07982
1.18045
1.28227
1.38531
1.48958
1.59513
1.70198
1.81017
1.91973
2.0307
2.1431
2.25699
2.37239
2.48936
2.60792
2.72814
2.85005
2.9737
3.09914
3.22643
3.35562
3.48677
3.61993
3.75518
3.89258
4.03219
4.17409
4.31836
4.46507
4.61431
4.76617
4.92075
5.07814
5.23845
5.40178
5.56827
5.73804
5.91126
0.044041
0.133204
0.22331
0.314378
0.406423
0.499464
0.593521
0.688616
0.78477
0.882007
0.980351
1.07983
1.18046
1.28228
1.38531
1.48959
1.59514
1.70199
1.81018
1.91974
2.0307
2.14311
2.25699
2.3724
2.48936
2.60793
2.72814
2.85005
2.9737
3.09914
3.22643
3.35562
3.48677
3.61994
3.75518
3.89258
4.03219
4.17409
4.31836
4.46508
4.61432
4.76618
4.92076
5.07815
5.23846
5.40181
5.5683
5.73808
5.91129
0.0440816
0.133286
0.223414
0.314493
0.406543
0.499587
0.593646
0.688741
0.784896
0.882133
0.980477
1.07995
1.18059
1.28241
1.38544
1.48971
1.59526
1.70211
1.8103
1.91986
2.03082
2.14323
2.25711
2.37252
2.48948
2.60805
2.72826
2.85017
2.97382
3.09926
3.22655
3.35574
3.48689
3.62006
3.75531
3.8927
4.03231
4.17422
4.31848
4.4652
4.61444
4.76631
4.92089
5.07828
5.23859
5.40193
5.56842
5.73819
5.91136
0.0440337
0.133205
0.223327
0.314407
0.406463
0.499511
0.593574
0.688672
0.784829
0.882067
0.980413
1.07989
1.18052
1.28234
1.38538
1.48965
1.5952
1.70205
1.81024
1.9198
2.03076
2.14317
2.25705
2.37246
2.48942
2.60799
2.7282
2.85011
2.97376
3.0992
3.22649
3.35568
3.48683
3.61999
3.75524
3.89264
4.03225
4.17415
4.31842
4.46514
4.61438
4.76624
4.92082
5.07821
5.23852
5.40186
5.56834
5.7381
5.91129
0.0441219
0.133379
0.223544
0.314648
0.406718
0.499777
0.593846
0.688949
0.785109
0.88235
0.980697
1.08018
1.18081
1.28263
1.38567
1.48994
1.59549
1.70234
1.81053
1.92009
2.03105
2.14346
2.25734
2.37275
2.48971
2.60828
2.72849
2.8504
2.97405
3.09949
3.22678
3.35597
3.48712
3.62028
3.75553
3.89293
4.03254
4.17444
4.31871
4.46543
4.61467
4.76653
4.92111
5.0785
5.2388
5.40213
5.5686
5.73833
5.91144
0.0440571
0.133265
0.223415
0.314518
0.40659
0.499653
0.593727
0.688833
0.784997
0.88224
0.98059
1.08007
1.18071
1.28253
1.38556
1.48984
1.59539
1.70224
1.81043
1.91999
2.03095
2.14336
2.25724
2.37264
2.48961
2.60817
2.72839
2.8503
2.97395
3.09939
3.22668
3.35587
3.48702
3.62018
3.75543
3.89283
4.03244
4.17434
4.31861
4.46532
4.61457
4.76643
4.921
5.07839
5.23869
5.40201
5.56847
5.7382
5.91133
0.0441207
0.133385
0.223561
0.314677
0.406758
0.499826
0.593903
0.689013
0.785179
0.882425
0.980776
1.08026
1.1809
1.28272
1.38575
1.49003
1.59558
1.70243
1.81062
1.92018
2.03114
2.14355
2.25743
2.37284
2.4898
2.60837
2.72858
2.85049
2.97414
3.09958
3.22687
3.35606
3.48721
3.62038
3.75562
3.89302
4.03263
4.17453
4.3188
4.46551
4.61476
4.76662
4.92119
5.07857
5.23887
5.40219
5.56864
5.73836
5.91144
0.0440658
0.133284
0.223442
0.314552
0.406631
0.499699
0.593778
0.688889
0.785056
0.882304
0.980656
1.08014
1.18078
1.2826
1.38564
1.48991
1.59546
1.70232
1.8105
1.92006
2.03103
2.14343
2.25732
2.37272
2.48969
2.60825
2.72847
2.85038
2.97403
3.09947
3.22676
3.35595
3.48709
3.62026
3.75551
3.8929
4.03252
4.17442
4.31869
4.4654
4.61464
4.7665
4.92107
5.07845
5.23874
5.40206
5.56852
5.73823
5.91135
0.0441117
0.133369
0.223542
0.314658
0.40674
0.49981
0.59389
0.689002
0.785169
0.882417
0.98077
1.08025
1.18089
1.28272
1.38575
1.49003
1.59558
1.70243
1.81062
1.92018
2.03114
2.14355
2.25744
2.37284
2.4898
2.60837
2.72858
2.85049
2.97414
3.09959
3.22687
3.35606
3.48721
3.62038
3.75563
3.89302
4.03263
4.17453
4.3188
4.46551
4.61475
4.76661
4.92118
5.07856
5.23886
5.40217
5.56863
5.73834
5.91142
0.0440704
0.133291
0.223449
0.314558
0.406636
0.499704
0.593782
0.688894
0.785061
0.882309
0.980662
1.08014
1.18078
1.28261
1.38564
1.48992
1.59547
1.70232
1.81051
1.92007
2.03104
2.14344
2.25733
2.37273
2.4897
2.60826
2.72848
2.85039
2.97404
3.09948
3.22677
3.35596
3.4871
3.62027
3.75552
3.89291
4.03253
4.17443
4.31869
4.46541
4.61465
4.76651
4.92108
5.07846
5.23875
5.40207
5.56852
5.73824
5.91135
0.0441001
0.133344
0.22351
0.314621
0.406699
0.499766
0.593844
0.688955
0.785122
0.882369
0.980721
1.0802
1.18084
1.28267
1.3857
1.48998
1.59553
1.70238
1.81057
1.92013
2.0311
2.1435
2.25739
2.37279
2.48975
2.60832
2.72854
2.85044
2.97409
3.09954
3.22683
3.35601
3.48716
3.62033
3.75558
3.89297
4.03258
4.17449
4.31875
4.46546
4.61471
4.76656
4.92114
5.07852
5.23881
5.40213
5.56858
5.7383
5.9114
0.0440743
0.133295
0.223449
0.314553
0.406628
0.499692
0.593768
0.688877
0.785043
0.882289
0.98064
1.08012
1.18076
1.28258
1.38562
1.4899
1.59545
1.7023
1.81049
1.92005
2.03101
2.14342
2.2573
2.37271
2.48967
2.60824
2.72845
2.85036
2.97401
3.09945
3.22674
3.35593
3.48708
3.62025
3.75549
3.89289
4.0325
4.1744
4.31867
4.46538
4.61462
4.76648
4.92105
5.07844
5.23873
5.40205
5.56851
5.73824
5.91136
0.0440885
0.133319
0.223475
0.31458
0.406653
0.499716
0.59379
0.688897
0.785061
0.882306
0.980657
1.08014
1.18078
1.2826
1.38563
1.48991
1.59546
1.70231
1.8105
1.92006
2.03102
2.14343
2.25731
2.37272
2.48968
2.60825
2.72846
2.85037
2.97402
3.09947
3.22675
3.35594
3.48709
3.62026
3.75551
3.8929
4.03251
4.17442
4.31868
4.4654
4.61464
4.7665
4.92107
5.07845
5.23875
5.40207
5.56854
5.73826
5.91138
0.0440784
0.133298
0.223449
0.31455
0.40662
0.49968
0.593752
0.688858
0.785021
0.882264
0.980614
1.08009
1.18073
1.28255
1.38559
1.48986
1.59541
1.70226
1.81045
1.92001
2.03098
2.14338
2.25727
2.37267
2.48963
2.6082
2.72842
2.85032
2.97397
3.09942
3.22671
3.3559
3.48704
3.62021
3.75546
3.89285
4.03247
4.17437
4.31864
4.46535
4.61459
4.76645
4.92103
5.07841
5.23871
5.40204
5.5685
5.73824
5.91137
0.0440772
0.133295
0.223443
0.314541
0.406609
0.499667
0.593737
0.688841
0.785002
0.882245
0.980593
1.08007
1.18071
1.28253
1.38556
1.48984
1.59539
1.70224
1.81043
1.91999
2.03095
2.14336
2.25724
2.37264
2.48961
2.60818
2.72839
2.8503
2.97395
3.09939
3.22668
3.35587
3.48702
3.62018
3.75543
3.89283
4.03244
4.17434
4.31861
4.46532
4.61457
4.76643
4.921
5.07839
5.23869
5.40202
5.56849
5.73823
5.91136
0.0440826
0.133303
0.22345
0.314546
0.406612
0.499668
0.593737
0.688839
0.785
0.882241
0.980588
1.08007
1.1807
1.28252
1.38556
1.48983
1.59538
1.70223
1.81042
1.91998
2.03094
2.14335
2.25723
2.37264
2.4896
2.60817
2.72838
2.85029
2.97394
3.09938
3.22667
3.35586
3.48701
3.62018
3.75542
3.89282
4.03243
4.17434
4.3186
4.46532
4.61456
4.76642
4.921
5.07839
5.23869
5.40202
5.56849
5.73823
5.91137
0.0440639
0.133266
0.223404
0.314495
0.406558
0.499613
0.59368
0.688782
0.784941
0.882182
0.980528
1.08001
1.18064
1.28246
1.3855
1.48977
1.59532
1.70217
1.81036
1.91992
2.03088
2.14329
2.25717
2.37257
2.48954
2.6081
2.72832
2.85023
2.97388
3.09932
3.22661
3.3558
3.48695
3.62011
3.75536
3.89276
4.03237
4.17427
4.31854
4.46525
4.6145
4.76636
4.92094
5.07833
5.23863
5.40196
5.56844
5.73819
5.91134
0.0440846
0.133304
0.223449
0.314543
0.406606
0.499661
0.593728
0.688829
0.784988
0.882229
0.980576
1.08005
1.18069
1.28251
1.38554
1.48982
1.59537
1.70222
1.8104
1.91996
2.03093
2.14333
2.25722
2.37262
2.48958
2.60815
2.72836
2.85027
2.97392
3.09937
3.22665
3.35584
3.48699
3.62016
3.75541
3.8928
4.03242
4.17432
4.31859
4.4653
4.61455
4.76641
4.92099
5.07837
5.23868
5.40201
5.56849
5.73823
5.91137
0.0440636
0.133266
0.223404
0.314495
0.406558
0.499613
0.59368
0.688782
0.784941
0.882182
0.980529
1.08001
1.18064
1.28246
1.3855
1.48977
1.59532
1.70217
1.81036
1.91992
2.03088
2.14329
2.25717
2.37257
2.48954
2.6081
2.72832
2.85023
2.97388
3.09932
3.22661
3.3558
3.48695
3.62011
3.75536
3.89276
4.03237
4.17427
4.31854
4.46525
4.6145
4.76636
4.92094
5.07833
5.23863
5.40196
5.56844
5.73819
5.91134
0.0440825
0.133302
0.22345
0.314546
0.406612
0.499669
0.593737
0.68884
0.785
0.882242
0.980589
1.08007
1.1807
1.28252
1.38556
1.48983
1.59538
1.70223
1.81042
1.91998
2.03094
2.14335
2.25723
2.37264
2.4896
2.60817
2.72838
2.85029
2.97394
3.09938
3.22667
3.35586
3.48701
3.62018
3.75542
3.89282
4.03243
4.17434
4.3186
4.46532
4.61456
4.76642
4.921
5.07839
5.23869
5.40202
5.56849
5.73823
5.91137
0.0440774
0.133295
0.223443
0.314541
0.406609
0.499667
0.593737
0.688842
0.785003
0.882246
0.980594
1.08007
1.18071
1.28253
1.38556
1.48984
1.59539
1.70224
1.81043
1.91999
2.03095
2.14336
2.25724
2.37265
2.48961
2.60818
2.72839
2.8503
2.97395
3.09939
3.22668
3.35587
3.48702
3.62018
3.75543
3.89283
4.03244
4.17434
4.31861
4.46532
4.61457
4.76643
4.921
5.07839
5.23869
5.40202
5.56849
5.73823
5.91136
0.0440786
0.133299
0.22345
0.31455
0.40662
0.499681
0.593753
0.688859
0.785022
0.882265
0.980615
1.08009
1.18073
1.28255
1.38559
1.48986
1.59541
1.70227
1.81045
1.92001
2.03098
2.14338
2.25727
2.37267
2.48964
2.6082
2.72842
2.85032
2.97397
3.09942
3.22671
3.3559
3.48704
3.62021
3.75546
3.89285
4.03247
4.17437
4.31864
4.46535
4.61459
4.76645
4.92103
5.07841
5.23871
5.40204
5.5685
5.73824
5.91137
0.0440884
0.133319
0.223475
0.31458
0.406653
0.499716
0.59379
0.688897
0.785062
0.882307
0.980657
1.08014
1.18078
1.2826
1.38563
1.48991
1.59546
1.70231
1.8105
1.92006
2.03102
2.14343
2.25732
2.37272
2.48968
2.60825
2.72846
2.85037
2.97402
3.09947
3.22675
3.35594
3.48709
3.62026
3.75551
3.8929
4.03251
4.17442
4.31868
4.4654
4.61464
4.7665
4.92107
5.07845
5.23875
5.40207
5.56854
5.73826
5.91138
0.044074
0.133294
0.223448
0.314553
0.406628
0.499693
0.593768
0.688877
0.785043
0.882289
0.98064
1.08012
1.18076
1.28258
1.38562
1.4899
1.59545
1.7023
1.81049
1.92005
2.03101
2.14342
2.2573
2.37271
2.48967
2.60824
2.72845
2.85036
2.97401
3.09945
3.22674
3.35593
3.48708
3.62025
3.75549
3.89289
4.0325
4.1744
4.31867
4.46538
4.61462
4.76648
4.92105
5.07844
5.23873
5.40205
5.56851
5.73824
5.91136
0.0441001
0.133344
0.22351
0.314621
0.406699
0.499766
0.593844
0.688954
0.785121
0.882368
0.98072
1.0802
1.18084
1.28267
1.3857
1.48998
1.59553
1.70238
1.81057
1.92013
2.03109
2.1435
2.25739
2.37279
2.48975
2.60832
2.72854
2.85044
2.97409
3.09954
3.22683
3.35601
3.48716
3.62033
3.75558
3.89297
4.03258
4.17449
4.31875
4.46546
4.61471
4.76656
4.92114
5.07852
5.23881
5.40213
5.56858
5.7383
5.9114
0.0440706
0.133291
0.223449
0.314558
0.406636
0.499703
0.593782
0.688894
0.785061
0.882309
0.980661
1.08014
1.18078
1.28261
1.38564
1.48992
1.59547
1.70232
1.81051
1.92007
2.03104
2.14344
2.25733
2.37273
2.4897
2.60826
2.72848
2.85039
2.97404
3.09948
3.22677
3.35596
3.4871
3.62027
3.75552
3.89291
4.03253
4.17443
4.31869
4.46541
4.61465
4.76651
4.92108
5.07846
5.23875
5.40207
5.56852
5.73824
5.91135
0.0441118
0.133369
0.223542
0.314658
0.40674
0.49981
0.593889
0.689001
0.785169
0.882417
0.98077
1.08025
1.18089
1.28272
1.38575
1.49003
1.59558
1.70243
1.81062
1.92018
2.03114
2.14355
2.25744
2.37284
2.4898
2.60837
2.72858
2.85049
2.97414
3.09959
3.22687
3.35606
3.48721
3.62038
3.75563
3.89302
4.03263
4.17454
4.3188
4.46551
4.61475
4.76661
4.92118
5.07856
5.23886
5.40217
5.56863
5.73834
5.91142
0.0440657
0.133284
0.223442
0.314552
0.406631
0.499699
0.593778
0.688889
0.785057
0.882304
0.980656
1.08014
1.18078
1.2826
1.38564
1.48991
1.59546
1.70232
1.8105
1.92006
2.03103
2.14343
2.25732
2.37272
2.48969
2.60825
2.72847
2.85038
2.97403
3.09947
3.22676
3.35595
3.4871
3.62026
3.75551
3.89291
4.03252
4.17442
4.31869
4.4654
4.61464
4.7665
4.92107
5.07845
5.23875
5.40206
5.56852
5.73823
5.91135
0.0441206
0.133385
0.223561
0.314677
0.406758
0.499826
0.593904
0.689014
0.785179
0.882426
0.980776
1.08026
1.1809
1.28272
1.38575
1.49003
1.59558
1.70243
1.81062
1.92018
2.03114
2.14355
2.25743
2.37284
2.4898
2.60837
2.72858
2.85049
2.97414
3.09958
3.22687
3.35606
3.48721
3.62038
3.75563
3.89302
4.03263
4.17454
4.3188
4.46551
4.61476
4.76662
4.92119
5.07857
5.23887
5.40219
5.56864
5.73836
5.91144
0.0440571
0.133265
0.223415
0.314518
0.406591
0.499653
0.593727
0.688834
0.784997
0.882241
0.98059
1.08007
1.18071
1.28253
1.38556
1.48984
1.59539
1.70224
1.81043
1.91999
2.03095
2.14336
2.25724
2.37265
2.48961
2.60818
2.72839
2.8503
2.97395
3.09939
3.22668
3.35587
3.48702
3.62018
3.75543
3.89283
4.03244
4.17434
4.31861
4.46532
4.61457
4.76643
4.921
5.07839
5.23869
5.40201
5.56848
5.7382
5.91133
0.0441221
0.133379
0.223544
0.314649
0.406719
0.499777
0.593847
0.68895
0.78511
0.882351
0.980698
1.08018
1.18081
1.28263
1.38567
1.48994
1.59549
1.70234
1.81053
1.92009
2.03105
2.14346
2.25734
2.37275
2.48971
2.60828
2.72849
2.8504
2.97405
3.09949
3.22678
3.35597
3.48712
3.62029
3.75553
3.89293
4.03254
4.17445
4.31871
4.46543
4.61467
4.76653
4.92111
5.0785
5.2388
5.40213
5.5686
5.73833
5.91144
0.044034
0.133206
0.223327
0.314408
0.406463
0.499512
0.593575
0.688673
0.78483
0.882068
0.980414
1.07989
1.18053
1.28235
1.38538
1.48965
1.5952
1.70205
1.81024
1.9198
2.03076
2.14317
2.25705
2.37246
2.48942
2.60799
2.7282
2.85011
2.97376
3.0992
3.22649
3.35568
3.48683
3.62
3.75524
3.89264
4.03225
4.17416
4.31842
4.46514
4.61438
4.76625
4.92082
5.07821
5.23852
5.40186
5.56834
5.7381
5.91129
0.0440814
0.133285
0.223414
0.314492
0.406543
0.499587
0.593646
0.688742
0.784896
0.882133
0.980477
1.07995
1.18059
1.28241
1.38544
1.48971
1.59526
1.70211
1.8103
1.91986
2.03082
2.14323
2.25711
2.37252
2.48948
2.60805
2.72826
2.85017
2.97382
3.09927
3.22655
3.35574
3.48689
3.62006
3.75531
3.8927
4.03231
4.17422
4.31848
4.4652
4.61444
4.76631
4.92089
5.07828
5.23859
5.40193
5.56842
5.73819
5.91136
0.0440409
0.133204
0.223311
0.314378
0.406423
0.499464
0.593522
0.688616
0.784771
0.882008
0.980352
1.07983
1.18046
1.28228
1.38532
1.48959
1.59514
1.70199
1.81018
1.91974
2.0307
2.14311
2.25699
2.3724
2.48936
2.60793
2.72814
2.85005
2.9737
3.09914
3.22643
3.35562
3.48677
3.61994
3.75518
3.89258
4.03219
4.17409
4.31836
4.46508
4.61432
4.76618
4.92076
5.07815
5.23846
5.40181
5.5683
5.73808
5.91129
0.0440172
0.133166
0.223272
0.314343
0.406392
0.499438
0.593499
0.688597
0.784754
0.881994
0.98034
1.07982
1.18045
1.28227
1.38531
1.48958
1.59513
1.70198
1.81017
1.91973
2.0307
2.1431
2.25699
2.37239
2.48936
2.60792
2.72814
2.85005
2.9737
3.09914
3.22643
3.35562
3.48676
3.61993
3.75518
3.89257
4.03219
4.17409
4.31836
4.46507
4.61431
4.76617
4.92075
5.07814
5.23845
5.40178
5.56827
5.73804
5.91126
0.0441313
0.133395
0.223562
0.314667
0.406738
0.499798
0.593869
0.688974
0.785136
0.88238
0.980729
1.08021
1.18085
1.28267
1.3857
1.48998
1.59553
1.70238
1.81057
1.92013
2.0311
2.1435
2.25739
2.37279
2.48976
2.60832
2.72854
2.85045
2.9741
3.09954
3.22683
3.35602
3.48717
3.62033
3.75558
3.89297
4.03259
4.17449
4.31875
4.46547
4.61471
4.76657
4.92114
5.07853
5.23883
5.40215
5.56862
5.73835
5.91145
0.0440464
0.133251
0.223404
0.314513
0.406592
0.49966
0.593739
0.688851
0.785019
0.882266
0.980619
1.0801
1.18074
1.28257
1.3856
1.48988
1.59543
1.70228
1.81047
1.92003
2.031
2.14341
2.25729
2.3727
2.48966
2.60823
2.72844
2.85035
2.974
3.09944
3.22673
3.35592
3.48707
3.62023
3.75548
3.89288
4.03249
4.17439
4.31865
4.46537
4.61461
4.76646
4.92103
5.07841
5.23871
5.40202
5.56848
5.7382
5.91132
0.0441587
0.133466
0.22367
0.314805
0.406901
0.49998
0.594067
0.689184
0.785356
0.882607
0.980963
1.08045
1.18109
1.28291
1.38595
1.49023
1.59578
1.70264
1.81083
1.92039
2.03135
2.14376
2.25765
2.37305
2.49002
2.60858
2.7288
2.85071
2.97436
3.0998
3.22709
3.35628
3.48742
3.62059
3.75584
3.89323
4.03284
4.17474
4.31901
4.46572
4.61496
4.76681
4.92138
5.07876
5.23904
5.40235
5.56879
5.73847
5.9115
0.0440536
0.133277
0.223449
0.314574
0.406667
0.499748
0.593837
0.688956
0.785131
0.882384
0.980741
1.08023
1.18087
1.2827
1.38573
1.49001
1.59557
1.70242
1.81061
1.92017
2.03114
2.14355
2.25743
2.37284
2.4898
2.60837
2.72858
2.85049
2.97414
3.09958
3.22687
3.35606
3.48721
3.62038
3.75562
3.89302
4.03263
4.17453
4.31879
4.4655
4.61474
4.76659
4.92116
5.07853
5.23882
5.40212
5.56856
5.73825
5.91134
0.0441692
0.13349
0.223701
0.314843
0.406942
0.500025
0.594114
0.689234
0.785408
0.882661
0.981018
1.0805
1.18115
1.28297
1.38601
1.49029
1.59584
1.7027
1.81089
1.92045
2.03142
2.14382
2.25771
2.37312
2.49008
2.60865
2.72886
2.85077
2.97442
3.09986
3.22715
3.35634
3.48749
3.62066
3.7559
3.8933
4.03291
4.17481
4.31907
4.46578
4.61502
4.76687
4.92144
5.07881
5.2391
5.4024
5.56883
5.73851
5.91152
0.0440448
0.133254
0.223414
0.314529
0.406614
0.499688
0.593771
0.688886
0.785057
0.882308
0.980664
1.08015
1.18079
1.28262
1.38566
1.48994
1.59549
1.70234
1.81053
1.9201
2.03106
2.14347
2.25736
2.37276
2.48973
2.60829
2.72851
2.85042
2.97407
3.09951
3.2268
3.35599
3.48713
3.6203
3.75555
3.89294
4.03255
4.17445
4.31871
4.46542
4.61466
4.76652
4.92108
5.07846
5.23875
5.40206
5.5685
5.73821
5.91132
0.0441568
0.133447
0.223629
0.314745
0.406823
0.499888
0.593965
0.689075
0.785242
0.88249
0.980843
1.08033
1.18097
1.28279
1.38583
1.49011
1.59566
1.70252
1.81071
1.92027
2.03124
2.14364
2.25753
2.37294
2.4899
2.60847
2.72868
2.85059
2.97424
3.09969
3.22697
3.35616
3.48731
3.62048
3.75572
3.89312
4.03273
4.17462
4.31889
4.4656
4.61484
4.76669
4.92126
5.07864
5.23893
5.40225
5.56871
5.73842
5.91149
0.043998
0.133129
0.223229
0.314299
0.406352
0.499402
0.593468
0.688572
0.784735
0.881979
0.980331
1.07981
1.18045
1.28228
1.38532
1.4896
1.59515
1.702
1.81019
1.91975
2.03072
2.14313
2.25702
2.37242
2.48939
2.60795
2.72817
2.85008
2.97373
3.09917
3.22646
3.35565
3.48679
3.61996
3.75521
3.8926
4.03221
4.17411
4.31837
4.46508
4.61432
4.76618
4.92075
5.07813
5.23842
5.40175
5.56823
5.738
5.91122
0.0440278
0.13318
0.223285
0.314355
0.406406
0.499454
0.593518
0.68862
0.784782
0.882026
0.980377
1.07986
1.1805
1.28232
1.38536
1.48964
1.59519
1.70205
1.81024
1.9198
2.03077
2.14317
2.25706
2.37247
2.48943
2.608
2.72821
2.85012
2.97377
3.09922
3.2265
3.35569
3.48684
3.62001
3.75525
3.89265
4.03226
4.17415
4.31842
4.46513
4.61437
4.76622
4.92079
5.07817
5.23847
5.4018
5.56829
5.73806
5.91127
0.0441095
0.133346
0.223496
0.314591
0.406656
0.499713
0.593783
0.688889
0.785053
0.882299
0.980651
1.08013
1.18077
1.2826
1.38564
1.48992
1.59547
1.70232
1.81052
1.92008
2.03104
2.14345
2.25734
2.37274
2.48971
2.60828
2.72849
2.8504
2.97405
3.09949
3.22678
3.35597
3.48712
3.62028
3.75553
3.89292
4.03253
4.17443
4.31869
4.4654
4.61464
4.7665
4.92107
5.07845
5.23874
5.40207
5.56854
5.73828
5.91141
0.0440247
0.133204
0.223342
0.314441
0.406515
0.49958
0.593658
0.688769
0.784937
0.882186
0.98054
1.08003
1.18067
1.28249
1.38553
1.48981
1.59536
1.70222
1.81041
1.91997
2.03094
2.14335
2.25723
2.37264
2.4896
2.60817
2.72839
2.8503
2.97395
3.09939
3.22668
3.35587
3.48701
3.62018
3.75542
3.89282
4.03243
4.17433
4.31859
4.4653
4.61454
4.76639
4.92096
5.07833
5.23863
5.40194
5.5684
5.73813
5.91128
0.0441786
0.133504
0.223715
0.314853
0.406949
0.500029
0.594116
0.689234
0.785406
0.882658
0.981015
1.0805
1.18114
1.28297
1.38601
1.49029
1.59584
1.7027
1.81089
1.92045
2.03142
2.14383
2.25771
2.37312
2.49008
2.60865
2.72887
2.85078
2.97443
3.09987
3.22716
3.35635
3.48749
3.62066
3.7559
3.8933
4.03291
4.17481
4.31907
4.46578
4.61501
4.76687
4.92143
5.07881
5.23909
5.4024
5.56884
5.73852
5.91154
0.0440473
0.133269
0.223443
0.31457
0.406665
0.499747
0.593837
0.688957
0.785132
0.882385
0.980743
1.08023
1.18087
1.2827
1.38574
1.49002
1.59557
1.70243
1.81062
1.92018
2.03115
2.14356
2.25744
2.37285
2.48981
2.60838
2.7286
2.85051
2.97416
3.0996
3.22689
3.35608
3.48722
3.62039
3.75564
3.89303
4.03264
4.17454
4.3188
4.46551
4.61474
4.7666
4.92116
5.07854
5.23882
5.40212
5.56856
5.73824
5.91133
0.0441876
0.133527
0.223749
0.314896
0.406998
0.500082
0.594172
0.689292
0.785466
0.882719
0.981076
1.08056
1.18121
1.28303
1.38607
1.49035
1.5959
1.70276
1.81095
1.92051
2.03148
2.14389
2.25778
2.37318
2.49015
2.60871
2.72893
2.85084
2.97449
3.09993
3.22722
3.35641
3.48756
3.62072
3.75597
3.89336
4.03297
4.17487
4.31913
4.46584
4.61508
4.76693
4.9215
5.07887
5.23915
5.40246
5.56889
5.73856
5.91156
0.0440377
0.133242
0.223399
0.314513
0.406596
0.499668
0.59375
0.688865
0.785035
0.882285
0.98064
1.08013
1.18077
1.28259
1.38563
1.48991
1.59546
1.70232
1.81051
1.92007
2.03104
2.14345
2.25733
2.37274
2.4897
2.60827
2.72849
2.8504
2.97405
3.09949
3.22678
3.35597
3.48711
3.62028
3.75553
3.89292
4.03253
4.17443
4.31869
4.4654
4.61464
4.76649
4.92106
5.07843
5.23872
5.40204
5.56848
5.73819
5.91131
0.0441619
0.133451
0.223628
0.314738
0.406811
0.499872
0.593945
0.689053
0.785218
0.882464
0.980816
1.0803
1.18094
1.28276
1.3858
1.49008
1.59563
1.70249
1.81068
1.92024
2.03121
2.14362
2.2575
2.37291
2.48987
2.60844
2.72866
2.85057
2.97422
3.09966
3.22695
3.35614
3.48728
3.62045
3.7557
3.89309
4.0327
4.1746
4.31886
4.46557
4.61481
4.76666
4.92123
5.07861
5.23891
5.40223
5.5687
5.73842
5.9115
0.0439761
0.133075
0.223152
0.314206
0.406248
0.49929
0.593352
0.688452
0.784612
0.881855
0.980205
1.07969
1.18033
1.28215
1.38519
1.48947
1.59502
1.70187
1.81007
1.91963
2.03059
2.143
2.25689
2.37229
2.48926
2.60783
2.72804
2.84995
2.9736
3.09904
3.22633
3.35552
3.48667
3.61983
3.75508
3.89247
4.03208
4.17398
4.31825
4.46495
4.61419
4.76605
4.92062
5.078
5.2383
5.40164
5.56813
5.73791
5.91118
0.0439758
0.133074
0.223151
0.314207
0.406248
0.499291
0.593352
0.688451
0.784611
0.881853
0.980203
1.07968
1.18032
1.28215
1.38519
1.48946
1.59502
1.70187
1.81006
1.91962
2.03059
2.143
2.25688
2.37229
2.48926
2.60782
2.72804
2.84995
2.9736
3.09904
3.22633
3.35551
3.48666
3.61983
3.75507
3.89247
4.03208
4.17398
4.31824
4.46495
4.61419
4.76605
4.92062
5.078
5.2383
5.40163
5.56812
5.73791
5.91118
0.0441619
0.133451
0.223628
0.314738
0.406811
0.499872
0.593945
0.689052
0.785216
0.882462
0.980814
1.0803
1.18094
1.28276
1.3858
1.49008
1.59563
1.70249
1.81068
1.92024
2.03121
2.14361
2.2575
2.37291
2.48987
2.60844
2.72865
2.85056
2.97421
3.09965
3.22694
3.35613
3.48728
3.62044
3.75569
3.89308
4.03269
4.17459
4.31886
4.46557
4.6148
4.76666
4.92123
5.07861
5.2389
5.40223
5.56869
5.73842
5.9115
0.044038
0.133242
0.2234
0.314513
0.406596
0.499668
0.593749
0.688863
0.785033
0.882283
0.980638
1.08012
1.18076
1.28259
1.38563
1.48991
1.59546
1.70232
1.81051
1.92007
2.03104
2.14344
2.25733
2.37274
2.4897
2.60827
2.72849
2.85039
2.97404
3.09949
3.22677
3.35596
3.48711
3.62028
3.75552
3.89292
4.03253
4.17442
4.31869
4.4654
4.61463
4.76649
4.92106
5.07843
5.23872
5.40203
5.56848
5.73819
5.91131
0.0441876
0.133527
0.223749
0.314896
0.406999
0.500082
0.594172
0.689292
0.785466
0.882719
0.981075
1.08056
1.1812
1.28303
1.38607
1.49035
1.5959
1.70276
1.81095
1.92051
2.03148
2.14389
2.25777
2.37318
2.49014
2.60871
2.72893
2.85084
2.97449
3.09993
3.22722
3.35641
3.48755
3.62072
3.75597
3.89336
4.03297
4.17487
4.31913
4.46584
4.61508
4.76693
4.92149
5.07887
5.23915
5.40246
5.56889
5.73856
5.91156
0.0440471
0.133269
0.223442
0.314569
0.406664
0.499746
0.593836
0.688956
0.785131
0.882384
0.980741
1.08023
1.18087
1.2827
1.38574
1.49002
1.59557
1.70243
1.81062
1.92018
2.03115
2.14356
2.25744
2.37285
2.48981