/*--------------------------------*- C++ -*----------------------------------*\
  =========                 |
  \\      /  F ield         | OpenFOAM: The Open Source CFD Toolbox
   \\    /   O peration     | Website:  https://openfoam.org
    \\  /    A nd           | Version:  6
     \\/     M anipulation  |
\*---------------------------------------------------------------------------*/
FoamFile
{
    version     2.0;
    format      ascii;
    class       volScalarField;
    location    "90";
    object      gradTx;
}
// * * * * * * * * * * * * * * * * * * * * * * * * * * * * * * * * * * * * * //

dimensions      [0 -1 0 1 0 0 0];

internalField   nonuniform List<scalar> 
13524
(
6.29569
6.3629
6.43077
6.49971
6.56979
6.64116
6.71399
6.78834
6.86432
6.942
7.02141
7.10266
7.18577
7.27084
7.35795
7.4472
7.53863
7.63233
7.72837
7.82685
7.92785
8.03149
8.13788
8.24713
8.35936
8.47469
8.59323
8.71514
8.84056
8.96966
9.10262
9.23958
9.38071
9.52619
9.67624
9.83109
9.99099
10.1562
10.3269
10.5034
10.6861
10.8753
11.0714
11.2748
11.4862
11.7061
11.9359
12.1783
12.4412
6.31755
6.37642
6.43984
6.50625
6.57489
6.64543
6.71774
6.79179
6.86758
6.94513
7.02448
7.10568
7.18878
7.27386
7.36098
7.45023
7.54167
7.6354
7.73148
7.82999
7.93104
8.03472
8.14114
8.25043
8.36271
8.47808
8.59668
8.71865
8.84412
8.97327
9.10626
9.24325
9.38443
9.52998
9.68011
9.83503
9.99498
10.1602
10.331
10.5076
10.6903
10.8796
11.0758
11.2793
11.4906
11.7102
11.9388
12.176
12.4176
6.52651
6.59688
6.66646
6.73673
6.8083
6.88144
6.95625
7.0328
7.11117
7.19139
7.27349
7.3575
7.44349
7.53157
7.62179
7.7142
7.80886
7.90587
8.00534
8.10735
8.21198
8.31934
8.42953
8.54269
8.65893
8.77837
8.90116
9.02746
9.1574
9.29114
9.42884
9.57068
9.71685
9.86754
10.023
10.1834
10.349
10.5201
10.6969
10.8797
11.069
11.2649
11.4679
11.6785
11.897
12.1239
12.36
12.6067
12.8692
6.62393
6.68676
6.75378
6.82357
6.89552
6.96939
7.04507
7.12257
7.20192
7.28314
7.36627
7.45133
7.53841
7.6276
7.71896
7.81254
7.90841
8.00666
8.10739
8.2107
8.31665
8.42538
8.53698
8.65159
8.76933
8.89031
9.01466
9.14253
9.2741
9.40954
9.54901
9.69268
9.84074
9.99335
10.1508
10.3132
10.4809
10.6542
10.8332
11.0184
11.21
11.4084
11.6139
11.8269
12.0478
12.277
12.5144
12.7594
13.0069
6.74026
6.81376
6.88631
6.95942
7.03373
7.10953
7.18701
7.26624
7.34729
7.4302
7.51504
7.60188
7.69078
7.78179
7.87498
7.97043
8.06824
8.16849
8.27128
8.37668
8.48477
8.59567
8.70951
8.82643
8.94655
9.07
9.19689
9.32737
9.4616
9.59975
9.74202
9.88858
10.0396
10.1953
10.3559
10.5216
10.6927
10.8695
11.0521
11.241
11.4365
11.6388
11.8484
12.0656
12.2908
12.5243
12.7666
13.0189
13.2863
6.90674
6.97342
7.0443
7.11792
7.19363
7.2712
7.35056
7.43171
7.51471
7.59961
7.68645
7.77531
7.86627
7.95939
8.05474
8.15239
8.25243
8.35498
8.46012
8.56793
8.67851
8.79196
8.90842
9.028
9.15084
9.27707
9.40684
9.54031
9.67763
9.81897
9.9645
10.1144
10.2689
10.4281
10.5924
10.7619
10.9369
11.1177
11.3045
11.4977
11.6976
11.9045
12.1189
12.341
12.5713
12.81
13.057
13.3115
13.5678
6.94131
7.0184
7.09438
7.17073
7.24812
7.32689
7.40722
7.48925
7.57306
7.65874
7.74636
7.83598
7.92766
8.02151
8.11762
8.21607
8.31693
8.42029
8.52623
8.63487
8.7463
8.86065
8.97804
9.09859
9.22242
9.34966
9.48044
9.61493
9.7533
9.89573
10.0424
10.1935
10.3492
10.5097
10.6752
10.846
11.0224
11.2046
11.3929
11.5876
11.7891
11.9977
12.2138
12.4378
12.67
12.911
13.1612
13.4217
13.6969
7.16158
7.23371
7.3091
7.38669
7.4661
7.54722
7.63002
7.71458
7.80097
7.88929
7.9796
8.07195
8.16643
8.26312
8.36214
8.46355
8.56745
8.67393
8.78309
8.89502
9.00983
9.12761
9.2485
9.37266
9.50022
9.6313
9.76606
9.90463
10.0472
10.1939
10.345
10.5006
10.661
10.8263
10.9968
11.1728
11.3545
11.5422
11.7362
11.9368
12.1444
12.3593
12.582
12.8129
13.0524
13.3011
13.5593
13.8268
14.1009
7.15306
7.23098
7.30897
7.38777
7.46774
7.54909
7.63201
7.71664
7.80309
7.89143
7.98172
8.07407
8.16858
8.26533
8.36439
8.46582
8.56971
8.6762
8.78538
8.89735
9.01219
9.13002
9.25098
9.37518
9.50276
9.63386
9.76863
9.90723
10.0498
10.1966
10.3477
10.5034
10.6638
10.8292
10.9998
11.1758
11.3575
11.5453
11.7393
11.94
12.1477
12.3627
12.5855
12.8167
13.0566
13.3059
13.5655
13.8364
14.12
7.37505
7.45472
7.53446
7.61513
7.6971
7.78063
7.86586
7.95291
8.04187
8.13284
8.22586
8.32099
8.41834
8.51801
8.62007
8.7246
8.83169
8.94145
9.05397
9.16934
9.28767
9.40908
9.53372
9.66173
9.79323
9.92836
10.0673
10.2101
10.357
10.5083
10.664
10.8245
10.9898
11.1602
11.336
11.5174
11.7047
11.8982
12.0982
12.305
12.519
12.7407
12.9704
13.2086
13.4559
13.7132
13.9814
14.2631
14.565
7.41119
7.48187
7.55725
7.63574
7.71664
7.79964
7.88463
7.9716
8.06057
8.1516
8.24475
8.34007
8.43762
8.53748
8.63973
8.74447
8.85178
8.96178
9.07455
9.1902
9.30882
9.43052
9.55544
9.68372
9.8155
9.95093
10.0901
10.2333
10.3806
10.5322
10.6883
10.8491
11.0148
11.1856
11.3618
11.5436
11.7314
11.9253
12.1257
12.333
12.5475
12.7696
12.9998
13.2384
13.4861
13.7434
14.0107
14.2877
14.5693
7.55497
7.63642
7.71724
7.79889
7.88201
7.96689
8.05366
8.14242
8.23324
8.32614
8.4212
8.51849
8.61809
8.72008
8.82452
8.93151
9.04111
9.15345
9.26861
9.38671
9.50786
9.63217
9.75978
9.89082
10.0254
10.1638
10.3059
10.4522
10.6026
10.7574
10.9169
11.0811
11.2504
11.4248
11.6048
11.7905
11.9822
12.1803
12.385
12.5967
12.8158
13.0426
13.2776
13.5212
13.7739
14.0363
14.309
14.5935
14.8949
7.63749
7.71128
7.78933
7.87029
7.95357
8.03894
8.12635
8.21582
8.30741
8.40116
8.49708
8.59523
8.6957
8.79857
8.90394
9.01188
9.12248
9.23583
9.35206
9.47124
9.59347
9.71888
9.84762
9.97983
10.1157
10.2552
10.3987
10.5463
10.698
10.8543
11.0151
11.1809
11.3516
11.5277
11.7093
11.8967
12.0901
12.29
12.4965
12.7101
12.9311
13.1599
13.3969
13.6425
13.8972
14.1614
14.4353
14.7182
15.0055
7.71913
7.80257
7.88539
7.96903
8.05413
8.14097
8.22969
8.3204
8.41319
8.50814
8.6053
8.70473
8.80652
8.91073
9.01746
9.12677
9.23877
9.35356
9.47125
9.59196
9.71577
9.8428
9.97319
10.1071
10.2446
10.386
10.5313
10.6807
10.8345
10.9927
11.1556
11.3234
11.4964
11.6747
11.8586
12.0484
12.2443
12.4467
12.6559
12.8722
13.096
13.3276
13.5676
13.8163
14.0741
14.3416
14.6192
14.9083
15.214
7.83848
7.91515
7.9959
8.07946
8.16528
8.2532
8.34317
8.43524
8.52942
8.62574
8.72428
8.82511
8.92832
9.034
9.14223
9.25309
9.36667
9.48307
9.60241
9.72478
9.85029
9.97907
10.1113
10.247
10.3865
10.5298
10.6771
10.8286
10.9845
11.1449
11.3101
11.4803
11.6556
11.8364
12.0228
12.2152
12.4139
12.6191
12.8312
13.0505
13.2774
13.5123
13.7556
14.0077
14.2691
14.54
14.8209
15.1109
15.406
7.87114
7.95633
8.04116
8.12689
8.21408
8.30299
8.39376
8.48653
8.58141
8.67844
8.77768
8.87921
8.98311
9.08947
9.19838
9.30992
9.4242
9.54134
9.66143
9.78458
9.91087
10.0405
10.1735
10.3101
10.4504
10.5946
10.7428
10.8952
11.0521
11.2135
11.3797
11.5509
11.7273
11.9092
12.0968
12.2904
12.4903
12.6968
12.9102
13.1308
13.3591
13.5955
13.8404
14.0942
14.3573
14.6303
14.9137
15.2087
15.5198
8.01499
8.09456
8.17805
8.26427
8.3527
8.44317
8.53564
8.63011
8.72668
8.82542
8.92641
9.02972
9.13542
9.24363
9.35443
9.4679
9.58414
9.70327
9.8254
9.95064
10.0791
10.2109
10.3462
10.4851
10.6278
10.7744
10.9252
11.0802
11.2397
11.4038
11.5729
11.747
11.9264
12.1114
12.3022
12.4991
12.7024
12.9124
13.1294
13.3538
13.5861
13.8266
14.0757
14.3339
14.6018
14.8797
15.1681
15.4662
15.7701
8.00984
8.09754
8.18491
8.27305
8.36248
8.45351
8.54635
8.64114
8.73797
8.83694
8.93812
9.0416
9.14747
9.25584
9.3668
9.48043
9.59685
9.71615
9.83846
9.96387
10.0925
10.2245
10.3599
10.499
10.6419
10.7888
10.9397
11.095
11.2547
11.419
11.5883
11.7627
11.9423
12.1276
12.3186
12.5158
12.7193
12.9296
13.147
13.3718
13.6044
13.8452
14.0948
14.3536
14.6222
14.9012
15.1914
15.4944
15.8138
8.1604
8.2462
8.33364
8.42274
8.51354
8.60611
8.70057
8.79703
8.8956
8.99636
9.09938
9.20473
9.31253
9.42287
9.53584
9.65152
9.77003
9.89149
10.016
10.1437
10.2746
10.409
10.5469
10.6885
10.834
10.9835
11.1372
11.2952
11.4578
11.6252
11.7975
11.975
12.1579
12.3465
12.541
12.7417
12.949
13.1631
13.3844
13.6132
13.8501
14.0954
14.3495
14.6132
14.8868
15.1712
15.4672
15.7761
16.1002
8.1666
8.25001
8.33611
8.42442
8.51477
8.60709
8.70141
8.79777
8.89628
8.99699
9.09997
9.20531
9.31309
9.42342
9.53639
9.65208
9.7706
9.89206
10.0166
10.1443
10.2752
10.4096
10.5475
10.6891
10.8346
10.9842
11.1378
11.2959
11.4585
11.6258
11.7982
11.9757
12.1586
12.3472
12.5418
12.7425
12.9498
13.1639
13.3852
13.6141
13.851
14.0963
14.3505
14.6142
14.8879
15.1723
15.468
15.7756
16.0936
8.28345
8.37201
8.4609
8.55102
8.64277
8.73638
8.832
8.92971
9.0296
9.13174
9.23621
9.34309
9.45246
9.56442
9.67905
9.79645
9.91673
10.04
10.1664
10.296
10.4289
10.5653
10.7052
10.849
10.9967
11.1484
11.3044
11.4648
11.6298
11.7997
11.9746
12.1548
12.3405
12.5319
12.7293
12.9331
13.1434
13.3608
13.5854
13.8177
14.0581
14.3071
14.5651
14.8327
15.1104
15.3989
15.6991
16.0123
16.3428
8.31007
8.39263
8.47885
8.56781
8.65907
8.75249
8.84803
8.94576
9.04573
9.14797
9.25257
9.35958
9.4691
9.58123
9.69605
9.81364
9.93411
10.0576
10.1842
10.314
10.4471
10.5837
10.724
10.868
11.0159
11.1679
11.3242
11.4849
11.6502
11.8203
11.9956
12.1761
12.3621
12.5538
12.7516
12.9557
13.1664
13.3841
13.6092
13.8419
14.0827
14.3321
14.5905
14.8584
15.1364
15.425
15.7246
16.0352
16.3537
8.39015
8.47927
8.56878
8.65961
8.7522
8.84672
8.94331
9.04204
9.14302
9.24633
9.35201
9.46014
9.5708
9.6841
9.80013
9.91897
10.0407
10.1655
10.2935
10.4247
10.5592
10.6973
10.839
10.9846
11.1341
11.2877
11.4457
11.6081
11.7752
11.9471
12.1242
12.3067
12.4947
12.6885
12.8884
13.0947
13.3077
13.5277
13.7551
13.9903
14.2337
14.4857
14.7468
15.0175
15.2983
15.5898
15.8926
16.2079
16.5392
8.42665
8.5112
8.59898
8.68927
8.78179
8.87646
8.97329
9.07231
9.17359
9.2772
9.38321
9.49168
9.6027
9.71636
9.83275
9.95198
10.0741
10.1993
10.3277
10.4593
10.5943
10.7328
10.875
11.0211
11.1711
11.3252
11.4837
11.6466
11.8143
11.9868
12.1645
12.3476
12.5362
12.7306
12.9312
13.1382
13.3519
13.5726
13.8008
14.0367
14.2809
14.5337
14.7956
15.0671
15.3487
15.6409
15.9441
16.2584
16.5817
8.48122
8.57091
8.66129
8.75312
8.8467
8.94222
9.03982
9.13959
9.24164
9.34602
9.4528
9.56206
9.67389
9.78839
9.90565
10.0257
10.1488
10.2749
10.4042
10.5368
10.6728
10.8124
10.9556
11.1027
11.2538
11.4091
11.5688
11.7329
11.9018
12.0756
12.2546
12.439
12.629
12.8249
13.027
13.2355
13.4508
13.6731
13.903
14.1407
14.3866
14.6412
14.905
15.1785
15.4621
15.7564
16.0622
16.3804
16.714
8.52074
8.60703
8.69621
8.78775
8.88146
8.97729
9.07524
9.17541
9.27785
9.38265
9.48985
9.59954
9.7118
9.82675
9.94446
10.065
10.1886
10.3152
10.445
10.5781
10.7146
10.8547
10.9985
11.1462
11.2979
11.4538
11.6141
11.7789
11.9484
12.1229
12.3026
12.4877
12.6785
12.8752
13.078
13.2873
13.5034
13.7267
13.9574
14.196
14.4429
14.6985
14.9633
15.2378
15.5225
15.8179
16.1246
16.4427
16.771
8.5576
8.64765
8.73872
8.83134
8.92579
9.02222
9.12075
9.22147
9.32446
9.42979
9.53754
9.64779
9.76063
9.87616
9.99446
10.1156
10.2398
10.367
10.4975
10.6313
10.7685
10.9093
11.0538
11.2022
11.3547
11.5114
11.6725
11.8381
12.0085
12.1839
12.3645
12.5505
12.7422
12.9399
13.1437
13.3541
13.5713
13.7957
14.0275
14.2673
14.5155
14.7723
15.0385
15.3143
15.6005
15.8975
16.206
16.527
16.8629
8.5938
8.68162
8.77196
8.86452
8.95918
9.05594
9.15484
9.25594
9.35933
9.46507
9.57324
9.68391
9.79719
9.91315
10.0319
10.1535
10.2782
10.4059
10.5368
10.6711
10.8089
10.9502
11.0953
11.2442
11.3973
11.5546
11.7162
11.8825
12.0535
12.2295
12.4108
12.5976
12.79
12.9884
13.193
13.4042
13.6222
13.8474
14.0801
14.3208
14.5699
14.8277
15.0949
15.3718
15.659
15.9572
16.2667
16.5881
16.9209
8.6188
8.70892
8.80042
8.89368
8.98885
9.08603
9.18531
9.28678
9.39054
9.49666
9.60521
9.71627
9.82994
9.9463
10.0655
10.1875
10.3126
10.4407
10.5721
10.7069
10.8451
10.9869
11.1324
11.2819
11.4354
11.5932
11.7555
11.9223
12.0939
12.2705
12.4524
12.6398
12.8328
13.0319
13.2372
13.449
13.6678
13.8937
14.1273
14.3688
14.6187
14.8774
15.1455
15.4234
15.7116
16.0109
16.3217
16.645
16.9825
8.64693
8.736
8.82727
8.92061
9.01599
9.11344
9.21303
9.31482
9.41891
9.52538
9.63427
9.74568
9.8597
9.97643
10.096
10.2184
10.3438
10.4724
10.6042
10.7393
10.878
11.0202
11.1662
11.3161
11.4702
11.6284
11.7911
11.9584
12.1306
12.3077
12.4902
12.6781
12.8718
13.0714
13.2774
13.4899
13.7093
13.9359
14.1702
14.4125
14.6631
14.9227
15.1916
15.4703
15.7595
16.0597
16.3715
16.6955
17.0318
8.66389
8.7539
8.84569
8.93938
9.03503
9.13273
9.23255
9.33459
9.43894
9.54565
9.65479
9.76645
9.88073
9.99772
10.1175
10.2402
10.3659
10.4948
10.6268
10.7623
10.9012
11.0438
11.1901
11.3403
11.4947
11.6533
11.8164
11.984
12.1565
12.3341
12.5169
12.7053
12.8993
13.0994
13.3058
13.5188
13.7386
13.9658
14.2006
14.4433
14.6946
14.9547
15.2242
15.5036
15.7935
16.0944
16.407
16.732
17.0704
8.68098
8.77113
8.86308
8.95695
9.05282
9.15073
9.25079
9.35306
9.45763
9.56456
9.67393
9.78583
9.90035
10.0176
10.1376
10.2606
10.3865
10.5156
10.648
10.7837
10.9229
11.0657
11.2123
11.3629
11.5176
11.6765
11.8399
12.0079
12.1807
12.3587
12.5419
12.7306
12.925
13.1255
13.3323
13.5457
13.766
13.9936
14.2289
14.4722
14.7239
14.9846
15.2547
15.5347
15.8252
16.1268
16.4401
16.7659
17.105
8.69186
8.78156
8.87341
8.96733
9.0633
9.16136
9.26156
9.36396
9.46866
9.57573
9.68525
9.7973
9.91196
10.0293
10.1495
10.2726
10.3987
10.528
10.6605
10.7964
10.9358
11.0788
11.2255
11.3763
11.5311
11.6903
11.8538
12.022
12.1951
12.3732
12.5566
12.7456
12.9403
13.141
13.348
13.5617
13.7823
14.0101
14.2457
14.4893
14.7413
15.0023
15.2727
15.5531
15.844
16.1461
16.4598
16.7859
17.1245
8.69638
8.78753
8.8801
8.9744
9.0706
9.16882
9.26913
9.37164
9.47644
9.58362
9.69324
9.80539
9.92015
10.0376
10.1579
10.2811
10.4073
10.5367
10.6693
10.8053
10.9448
11.0879
11.2348
11.3857
11.5407
11.6999
11.8637
12.032
12.2052
12.3835
12.567
12.7561
12.951
13.1519
13.3591
13.5729
13.7937
14.0218
14.2575
14.5013
14.7536
15.0148
15.2855
15.5661
15.8573
16.1597
16.4739
16.801
17.1427
8.70144
8.7909
8.88277
8.9768
9.0729
9.17109
9.2714
9.37393
9.47876
9.58597
9.69562
9.80779
9.92258
10.0401
10.1604
10.2837
10.4099
10.5393
10.672
10.808
10.9475
11.0907
11.2376
11.3885
11.5435
11.7028
11.8666
12.035
12.2082
12.3865
12.5701
12.7593
12.9542
13.1551
13.3624
13.5763
13.7971
14.0252
14.261
14.5049
14.7572
15.0185
15.2893
15.57
15.8613
16.1637
16.4779
16.8045
17.1431
8.69634
8.78753
8.88012
8.97443
9.07062
9.16881
9.26912
9.37163
9.47645
9.58363
9.69324
9.80538
9.92014
10.0376
10.1579
10.2811
10.4073
10.5367
10.6693
10.8053
10.9448
11.0879
11.2348
11.3857
11.5407
11.6999
11.8636
12.032
12.2052
12.3835
12.567
12.7561
12.951
13.1519
13.3591
13.5729
13.7937
14.0218
14.2575
14.5013
14.7536
15.0148
15.2855
15.5661
15.8573
16.1597
16.4739
16.801
17.1427
8.69185
8.78157
8.87343
8.96735
9.06331
9.16136
9.26155
9.36396
9.46867
9.57574
9.68525
9.7973
9.91196
10.0293
10.1495
10.2726
10.3987
10.528
10.6605
10.7964
10.9358
11.0788
11.2255
11.3763
11.5311
11.6902
11.8538
12.022
12.1951
12.3732
12.5566
12.7456
12.9403
13.141
13.348
13.5617
13.7823
14.0101
14.2457
14.4893
14.7413
15.0023
15.2727
15.5531
15.844
16.1461
16.4598
16.7859
17.1245
8.68101
8.77114
8.86308
8.95695
9.05281
9.15074
9.2508
9.35307
9.45763
9.56456
9.67394
9.78584
9.90035
10.0176
10.1376
10.2606
10.3865
10.5156
10.648
10.7837
10.9229
11.0657
11.2123
11.3629
11.5176
11.6765
11.8399
12.0079
12.1807
12.3586
12.5418
12.7306
12.925
13.1255
13.3323
13.5457
13.766
13.9936
14.2289
14.4722
14.7239
14.9846
15.2547
15.5347
15.8252
16.1268
16.4401
16.7659
17.105
8.66393
8.75391
8.84568
8.93936
9.03502
9.13274
9.23257
9.33461
9.43894
9.54565
9.65479
9.76646
9.88073
9.99772
10.1175
10.2402
10.3659
10.4948
10.6268
10.7623
10.9012
11.0437
11.1901
11.3403
11.4947
11.6533
11.8164
11.984
12.1565
12.3341
12.5169
12.7053
12.8993
13.0994
13.3058
13.5188
13.7386
13.9658
14.2006
14.4433
14.6946
14.9547
15.2242
15.5036
15.7935
16.0944
16.407
16.732
17.0704
8.64692
8.736
8.82727
8.92061
9.016
9.11345
9.21303
9.31482
9.41892
9.52538
9.63428
9.74568
9.8597
9.97643
10.096
10.2184
10.3438
10.4724
10.6042
10.7393
10.878
11.0202
11.1662
11.3161
11.4701
11.6284
11.7911
11.9584
12.1306
12.3077
12.4902
12.6781
12.8718
13.0714
13.2774
13.4899
13.7093
13.9359
14.1702
14.4125
14.6631
14.9227
15.1916
15.4703
15.7595
16.0597
16.3715
16.6955
17.0318
8.61876
8.70891
8.80044
8.89371
8.98887
9.08602
9.1853
9.28678
9.39054
9.49666
9.60521
9.71627
9.82993
9.9463
10.0655
10.1875
10.3126
10.4407
10.5721
10.7069
10.8451
10.9869
11.1324
11.2819
11.4354
11.5932
11.7555
11.9223
12.0939
12.2705
12.4524
12.6398
12.8328
13.0319
13.2372
13.449
13.6678
13.8938
14.1273
14.3688
14.6187
14.8774
15.1455
15.4234
15.7116
16.0109
16.3217
16.645
16.9825
8.59379
8.68162
8.77197
8.86453
8.95917
9.05592
9.15482
9.25593
9.35932
9.46506
9.57323
9.68391
9.79718
9.91315
10.0319
10.1535
10.2782
10.4059
10.5368
10.6711
10.8089
10.9502
11.0953
11.2442
11.3973
11.5546
11.7162
11.8825
12.0535
12.2296
12.4108
12.5976
12.79
12.9884
13.193
13.4042
13.6222
13.8474
14.0801
14.3208
14.5699
14.8277
15.0949
15.3718
15.659
15.9572
16.2667
16.5881
16.9209
8.55763
8.64765
8.7387
8.83132
8.92577
9.02222
9.12076
9.22147
9.32445
9.42978
9.53754
9.64779
9.76063
9.87616
9.99446
10.1156
10.2398
10.367
10.4975
10.6313
10.7685
10.9093
11.0538
11.2023
11.3547
11.5114
11.6725
11.8381
12.0085
12.1839
12.3645
12.5505
12.7423
12.9399
13.1437
13.3541
13.5713
13.7957
14.0276
14.2673
14.5155
14.7723
15.0385
15.3143
15.6005
15.8975
16.206
16.527
16.8629
8.52074
8.60703
8.6962
8.78774
8.88146
8.97729
9.07525
9.17541
9.27785
9.38265
9.48985
9.59954
9.71181
9.82675
9.94447
10.065
10.1886
10.3152
10.445
10.5781
10.7146
10.8547
10.9985
11.1462
11.2979
11.4538
11.6141
11.7789
11.9484
12.1229
12.3026
12.4878
12.6785
12.8752
13.078
13.2873
13.5034
13.7267
13.9574
14.196
14.4429
14.6985
14.9633
15.2378
15.5225
15.8179
16.1246
16.4427
16.771
8.48122
8.57092
8.66129
8.75312
8.8467
8.94223
9.03982
9.1396
9.24165
9.34603
9.45281
9.56207
9.6739
9.7884
9.90565
10.0258
10.1488
10.2749
10.4042
10.5368
10.6728
10.8124
10.9556
11.1027
11.2538
11.4091
11.5688
11.7329
11.9018
12.0756
12.2546
12.439
12.6291
12.8249
13.027
13.2355
13.4508
13.6731
13.903
14.1407
14.3866
14.6412
14.905
15.1785
15.4621
15.7564
16.0622
16.3803
16.714
8.42665
8.51119
8.59898
8.68929
8.78181
8.87647
8.97329
9.07232
9.17361
9.27722
9.38322
9.49168
9.6027
9.71637
9.83277
9.95199
10.0741
10.1993
10.3277
10.4593
10.5943
10.7329
10.875
11.0211
11.1711
11.3252
11.4837
11.6466
11.8143
11.9868
12.1645
12.3476
12.5362
12.7306
12.9312
13.1382
13.3519
13.5726
13.8008
14.0367
14.2809
14.5337
14.7956
15.067
15.3486
15.6409
15.9441
16.2584
16.5817
8.39014
8.47927
8.5688
8.65964
8.75221
8.84672
8.94331
9.04206
9.14304
9.24634
9.35201
9.46015
9.57082
9.68412
9.80015
9.91898
10.0407
10.1655
10.2935
10.4247
10.5592
10.6973
10.839
10.9846
11.1341
11.2877
11.4457
11.6081
11.7752
11.9471
12.1242
12.3067
12.4947
12.6885
12.8884
13.0947
13.3077
13.5277
13.7551
13.9903
14.2337
14.4857
14.7468
15.0175
15.2983
15.5898
15.8926
16.2079
16.5392
8.31011
8.39266
8.47887
8.5678
8.65906
8.75248
8.84805
8.94578
9.04573
9.14798
9.25258
9.3596
9.46912
9.58124
9.69605
9.81365
9.93412
10.0576
10.1842
10.314
10.4471
10.5837
10.724
10.868
11.0159
11.1679
11.3242
11.4849
11.6502
11.8203
11.9956
12.1761
12.3621
12.5538
12.7516
12.9557
13.1664
13.3841
13.6092
13.8419
14.0827
14.3321
14.5905
14.8584
15.1364
15.425
15.7246
16.0352
16.3537
8.28349
8.37202
8.46088
8.551
8.64278
8.73641
8.83202
8.92972
9.0296
9.13176
9.23623
9.3431
9.45247
9.56442
9.67905
9.79646
9.91674
10.04
10.1664
10.296
10.4289
10.5653
10.7052
10.849
10.9967
11.1484
11.3044
11.4648
11.6298
11.7997
11.9746
12.1548
12.3405
12.5319
12.7293
12.9331
13.1434
13.3608
13.5854
13.8177
14.0581
14.3071
14.5651
14.8327
15.1104
15.3989
15.6991
16.0123
16.3428
8.16657
8.24999
8.33611
8.42445
8.5148
8.60711
8.70141
8.79778
8.89628
8.997
9.09998
9.20531
9.31309
9.42342
9.53639
9.65208
9.7706
9.89206
10.0166
10.1443
10.2752
10.4096
10.5475
10.6891
10.8346
10.9841
11.1378
11.2959
11.4585
11.6258
11.7982
11.9757
12.1586
12.3472
12.5417
12.7425
12.9497
13.1639
13.3852
13.6141
13.851
14.0963
14.3505
14.6142
14.8879
15.1723
15.468
15.7755
16.0936
8.1604
8.24623
8.33367
8.42275
8.51353
8.6061
8.70057
8.79704
8.89562
8.99637
9.09938
9.20473
9.31252
9.42286
9.53583
9.65151
9.77003
9.89148
10.016
10.1437
10.2746
10.409
10.5469
10.6885
10.834
10.9835
11.1372
11.2952
11.4578
11.6251
11.7975
11.975
12.1579
12.3465
12.541
12.7417
12.949
13.1631
13.3844
13.6132
13.8501
14.0954
14.3495
14.6132
14.8868
15.1712
15.4672
15.7761
16.1002
8.00986
8.09754
8.18491
8.27304
8.36248
8.45353
8.54638
8.64115
8.73797
8.83693
8.9381
9.04158
9.14747
9.25584
9.3668
9.48043
9.59683
9.71613
9.83844
9.96385
10.0925
10.2244
10.3599
10.499
10.6419
10.7888
10.9397
11.095
11.2547
11.419
11.5883
11.7627
11.9423
12.1276
12.3186
12.5158
12.7193
12.9296
13.147
13.3718
13.6044
13.8452
14.0948
14.3536
14.6222
14.9012
15.1914
15.4944
15.8138
8.01499
8.09457
8.17806
8.26428
8.3527
8.44316
8.53561
8.63009
8.72667
8.82542
8.92641
9.02972
9.13543
9.24363
9.35442
9.46788
9.58412
9.70326
9.8254
9.95064
10.0791
10.2109
10.3462
10.4851
10.6278
10.7744
10.9252
11.0802
11.2397
11.4038
11.5729
11.747
11.9264
12.1114
12.3022
12.4991
12.7024
12.9124
13.1294
13.3539
13.5861
13.8266
14.0757
14.334
14.6018
14.8797
15.1681
15.4663
15.7701
7.87115
7.95634
8.04115
8.12687
8.21406
8.30298
8.39378
8.48656
8.58143
8.67845
8.77768
8.87921
8.98311
9.08948
9.19839
9.30994
9.42422
9.54136
9.66145
9.78459
9.91089
10.0405
10.1735
10.3101
10.4504
10.5946
10.7429
10.8953
11.0521
11.2135
11.3797
11.5509
11.7274
11.9092
12.0968
12.2904
12.4903
12.6968
12.9102
13.1309
13.3592
13.5955
13.8404
14.0942
14.3573
14.6303
14.9137
15.2087
15.5198
7.83848
7.91514
7.99589
8.07946
8.16531
8.25324
8.34321
8.43525
8.52941
8.62574
8.7243
8.82514
8.92836
9.03404
9.14226
9.25311
9.36669
9.48309
9.60243
9.72481
9.85033
9.97912
10.1113
10.2471
10.3865
10.5299
10.6772
10.8287
10.9845
11.1449
11.3101
11.4803
11.6557
11.8364
12.0229
12.2153
12.4139
12.6191
12.8312
13.0505
13.2774
13.5123
13.7556
14.0077
14.269
14.54
14.8208
15.1109
15.406
7.71914
7.80258
7.88541
7.96906
8.05415
8.14097
8.22968
8.32041
8.41322
8.50817
8.60533
8.70475
8.80653
8.91074
9.01747
9.12679
9.2388
9.3536
9.4713
9.592
9.7158
9.84282
9.97321
10.1071
10.2447
10.386
10.5313
10.6808
10.8345
10.9927
11.1556
11.3235
11.4964
11.6747
11.8586
12.0484
12.2443
12.4467
12.6559
12.8722
13.096
13.3276
13.5676
13.8163
14.0741
14.3416
14.6192
14.9083
15.214
7.63749
7.7113
7.78935
7.8703
7.95357
8.03895
8.12638
8.21587
8.30745
8.40117
8.49707
8.59523
8.69571
8.7986
8.90398
9.01191
9.12251
9.23586
9.35208
9.47125
9.59349
9.71891
9.84765
9.97986
10.1157
10.2553
10.3987
10.5463
10.6981
10.8543
11.0152
11.1809
11.3517
11.5277
11.7093
11.8967
12.0901
12.29
12.4965
12.7101
12.9311
13.1599
13.3969
13.6425
13.8972
14.1614
14.4353
14.7182
15.0055
7.55498
7.63644
7.71725
7.7989
7.88203
7.96691
8.05368
8.14243
8.23323
8.32614
8.42122
8.51852
8.61812
8.7201
8.82453
8.93151
9.04111
9.15345
9.26863
9.38674
9.50789
9.63219
9.75978
9.89081
10.0254
10.1638
10.3059
10.4522
10.6026
10.7574
10.9169
11.0811
11.2504
11.4248
11.6048
11.7905
11.9822
12.1803
12.385
12.5967
12.8157
13.0425
13.2775
13.5211
13.7739
14.0363
14.309
14.5934
14.8949
7.41124
7.4819
7.55726
7.63575
7.71665
7.79965
7.88464
7.97161
8.06059
8.15163
8.24477
8.34007
8.43762
8.53748
8.63975
8.74449
8.85181
8.9618
9.07458
9.19022
9.30882
9.43052
9.55544
9.68373
9.81552
9.95095
10.0902
10.2333
10.3806
10.5322
10.6883
10.8491
11.0148
11.1856
11.3618
11.5436
11.7313
11.9253
12.1257
12.333
12.5475
12.7696
12.9997
13.2384
13.4861
13.7434
14.0107
14.2876
14.5693
7.37505
7.45471
7.53446
7.61513
7.69711
7.78065
7.86588
7.95292
8.04189
8.13284
8.22586
8.321
8.41836
8.51803
8.62008
8.7246
8.83168
8.94144
9.05396
9.16934
9.28768
9.4091
9.53373
9.66173
9.79322
9.92834
10.0672
10.2101
10.357
10.5083
10.664
10.8244
10.9898
11.1602
11.336
11.5174
11.7047
11.8982
12.0981
12.305
12.519
12.7406
12.9703
13.2085
13.4559
13.7132
13.9814
14.263
14.565
7.15305
7.23099
7.309
7.3878
7.46775
7.5491
7.63202
7.71664
7.80308
7.89142
7.98173
8.07409
8.16859
8.26532
8.36436
8.46579
8.56971
8.67621
8.78539
8.89735
9.01218
9.13
9.25094
9.37514
9.50273
9.63384
9.76862
9.90721
10.0498
10.1965
10.3477
10.5033
10.6638
10.8291
10.9997
11.1757
11.3575
11.5452
11.7393
11.9399
12.1476
12.3627
12.5855
12.8166
13.0566
13.3059
13.5655
13.8364
14.12
7.1616
7.23372
7.30909
7.38669
7.46611
7.54722
7.63003
7.71459
7.801
7.88931
7.9796
8.07194
8.16642
8.26313
8.36215
8.46355
8.56744
8.67391
8.78306
8.89499
9.00979
9.12758
9.24849
9.37265
9.5002
9.63128
9.76602
9.90457
10.0471
10.1938
10.3449
10.5005
10.6609
10.8263
10.9968
11.1727
11.3544
11.5421
11.7361
11.9367
12.1443
12.3593
12.582
12.8129
13.0524
13.3011
13.5593
13.8268
14.1009
6.94132
7.01842
7.09439
7.17075
7.24814
7.32691
7.40724
7.48927
7.57308
7.65875
7.74636
7.83597
7.92767
8.02153
8.11764
8.21607
8.31692
8.42027
8.52623
8.63488
8.74632
8.86066
8.97804
9.09857
9.22239
9.34964
9.48043
9.61493
9.7533
9.89573
10.0424
10.1935
10.3492
10.5096
10.6752
10.846
11.0224
11.2046
11.3929
11.5876
11.7891
11.9977
12.2138
12.4378
12.6701
12.911
13.1612
13.4217
13.6969
6.90676
6.97343
7.04431
7.11792
7.19363
7.27119
7.35055
7.43171
7.51471
7.59962
7.68647
7.77534
7.86628
7.95939
8.05474
8.15239
8.25244
8.35499
8.46012
8.56793
8.6785
8.79195
8.90841
9.02801
9.15087
9.27712
9.4069
9.54036
9.67765
9.81898
9.9645
10.1144
10.2689
10.4281
10.5924
10.7619
10.9369
11.1177
11.3045
11.4977
11.6976
11.9046
12.119
12.3411
12.5714
12.81
13.057
13.3115
13.5678
6.74024
6.81374
6.8863
6.95941
7.03374
7.10956
7.18703
7.26626
7.3473
7.43023
7.51508
7.60191
7.69079
7.78179
7.87499
7.97045
8.06826
8.16851
8.27129
8.37669
8.48479
8.59571
8.70957
8.82649
8.94661
9.07005
9.19693
9.32741
9.46164
9.59981
9.74209
9.88865
10.0397
10.1954
10.356
10.5217
10.6928
10.8695
11.0522
11.2411
11.4366
11.6389
11.8485
12.0657
12.2909
12.5244
12.7666
13.0189
13.2862
6.62391
6.68677
6.7538
6.8236
6.89555
6.96941
7.0451
7.1226
7.20195
7.28317
7.3663
7.45137
7.53847
7.62766
7.719
7.81257
7.90844
8.0067
8.10744
8.21075
8.31671
8.42543
8.53703
8.65164
8.76938
8.89037
9.01474
9.14263
9.2742
9.40963
9.54909
9.69275
9.84079
9.9934
10.1508
10.3132
10.481
10.6542
10.8333
11.0184
11.21
11.4084
11.6139
11.827
12.0479
12.277
12.5144
12.7594
13.0068
6.52653
6.59689
6.66646
6.73674
6.80831
6.88145
6.95627
7.03284
7.11121
7.19143
7.27352
7.35754
7.44355
7.53162
7.62182
7.71421
7.80888
7.9059
8.00538
8.10739
8.21201
8.31937
8.42956
8.54273
8.65898
8.77845
8.90126
9.02754
9.15746
9.29118
9.42889
9.57074
9.71691
9.8676
10.023
10.1834
10.349
10.5201
10.6969
10.8798
11.069
11.265
11.468
11.6785
11.897
12.124
12.36
12.6066
12.8691
6.31756
6.37642
6.43983
6.50624
6.57489
6.64544
6.71777
6.79182
6.8676
6.94515
7.02449
7.10569
7.18879
7.27388
7.36101
7.45025
7.54168
7.6354
7.73147
7.82999
7.93104
8.03472
8.14115
8.25045
8.36273
8.47811
8.59671
8.71867
8.84414
8.97329
9.10629
9.24329
9.38446
9.53
9.68011
9.83502
9.99496
10.1602
10.331
10.5076
10.6904
10.8796
11.0758
11.2793
11.4906
11.7102
11.9387
12.176
12.4175
6.29568
6.36291
6.43081
6.4997
6.56977
6.64117
6.71401
6.78837
6.86435
6.94202
7.02144
7.10268
7.1858
7.27088
7.358
7.44722
7.53863
7.63231
7.72836
7.82685
7.92786
8.0315
8.13788
8.24713
8.35937
8.47471
8.59326
8.71518
8.8406
8.9697
9.10264
9.23958
9.3807
9.52618
9.67623
9.83107
9.99095
10.1561
10.3268
10.5034
10.6861
10.8753
11.0714
11.2749
11.4862
11.7061
11.9359
12.1782
12.441
5.98357
6.05334
6.12109
6.18841
6.25607
6.32464
6.39437
6.46542
6.53796
6.61204
6.68776
6.7652
6.84439
6.92544
7.00844
7.09346
7.18057
7.26982
7.3613
7.45509
7.55129
7.65001
7.75136
7.85543
7.96233
8.07217
8.18507
8.30119
8.42066
8.54366
8.67031
8.80076
8.93517
9.07374
9.21668
9.36419
9.51649
9.67378
9.83635
10.0045
10.1785
10.3587
10.5454
10.739
10.94
11.1489
11.3664
11.5935
11.8324
6.00058
6.05974
6.12254
6.18748
6.25409
6.32216
6.39162
6.46253
6.53497
6.60902
6.68472
6.76209
6.84123
6.92225
7.00525
7.09025
7.17729
7.26647
7.3579
7.45166
7.54785
7.64653
7.74783
7.85184
7.95868
8.06847
8.18134
8.29742
8.41687
8.5398
8.66636
8.79673
8.93109
9.06961
9.21249
9.35991
9.51211
9.66933
9.83182
9.99987
10.1738
10.3538
10.5403
10.7336
10.9341
11.1419
11.3569
11.5779
11.7985
5.74762
5.81108
5.87369
5.93671
6.00071
6.06587
6.13234
6.20025
6.26966
6.34062
6.41315
6.48732
6.56324
6.64099
6.7206
6.8021
6.88558
6.97114
7.05886
7.14882
7.2411
7.33577
7.43293
7.53271
7.6352
7.74054
7.84884
7.96021
8.07477
8.19269
8.31411
8.4392
8.56811
8.70099
8.83804
8.97946
9.12547
9.2763
9.43219
9.59339
9.76016
9.93282
10.1117
10.297
10.489
10.6881
10.8944
11.1086
11.3349
5.66826
5.72256
5.78039
5.84056
5.9025
5.966
6.03104
6.09759
6.16567
6.2353
6.30653
6.37944
6.45408
6.5305
6.60873
6.68884
6.77093
6.85507
6.94134
7.02981
7.12053
7.21361
7.30914
7.40727
7.50808
7.61168
7.71817
7.82767
7.94032
8.05628
8.17569
8.2987
8.42545
8.55612
8.69088
8.82995
8.97353
9.12186
9.27515
9.43365
9.59765
9.76743
9.94329
10.1255
10.3143
10.51
10.7124
10.9209
11.1309
5.49817
5.55771
5.61656
5.67596
5.73638
5.79809
5.86119
5.92573
5.99178
6.05936
6.12854
6.19936
6.27185
6.34607
6.42206
6.49989
6.57966
6.66143
6.74526
6.83121
6.91935
7.00979
7.10264
7.19801
7.29597
7.39662
7.50009
7.60649
7.71598
7.82867
7.9447
8.06422
8.18739
8.31436
8.44532
8.58046
8.72
8.86413
9.01309
9.16713
9.32652
9.49154
9.66248
9.83965
10.0234
10.214
10.4119
10.6182
10.8374
5.31735
5.36747
5.42104
5.47687
5.53449
5.59369
5.65437
5.71653
5.78017
5.84534
5.91206
5.98035
6.05024
6.12179
6.19509
6.27018
6.34714
6.426
6.50684
6.58973
6.67476
6.76202
6.85159
6.94358
7.03806
7.13516
7.23497
7.33762
7.44323
7.55193
7.66385
7.77915
7.89797
8.02045
8.14678
8.27715
8.41175
8.55079
8.69451
8.84313
8.99692
9.15616
9.32115
9.49223
9.66973
9.85399
10.0453
10.2432
10.4442
5.23504
5.29071
5.34627
5.40256
5.45998
5.51866
5.57867
5.64008
5.70293
5.76727
5.83312
5.9005
5.96945
6.04007
6.11241
6.18652
6.26243
6.34023
6.41998
6.50178
6.58569
6.67178
6.76015
6.85089
6.94411
7.03992
7.13841
7.23969
7.34388
7.45112
7.56155
7.67531
7.79254
7.91339
8.03804
8.16666
8.29947
8.43668
8.57849
8.72514
8.87691
9.03408
9.19697