/*--------------------------------*- C++ -*----------------------------------*\
  =========                 |
  \\      /  F ield         | OpenFOAM: The Open Source CFD Toolbox
   \\    /   O peration     | Website:  https://openfoam.org
    \\  /    A nd           | Version:  6
     \\/     M anipulation  |
\*---------------------------------------------------------------------------*/
FoamFile
{
    version     2.0;
    format      ascii;
    class       volScalarField;
    location    "30";
    object      T;
}
// * * * * * * * * * * * * * * * * * * * * * * * * * * * * * * * * * * * * * //

dimensions      [0 0 0 1 0 0 0];

internalField   nonuniform List<scalar> 
13524
(
0.0146587
0.0443583
0.0743838
0.104735
0.135416
0.16643
0.197784
0.229484
0.261537
0.293951
0.326734
0.359895
0.393441
0.427383
0.461728
0.496488
0.531672
0.56729
0.603354
0.639875
0.676863
0.714333
0.752295
0.790763
0.829752
0.869274
0.909346
0.949982
0.991199
1.03301
1.07544
1.1185
1.16222
1.20661
1.25169
1.29749
1.34403
1.39133
1.43941
1.48832
1.53806
1.58868
1.64021
1.69267
1.7461
1.80054
1.85604
1.91264
1.97039
0.0147206
0.0444837
0.0745427
0.104913
0.135604
0.166624
0.197982
0.229684
0.261739
0.294154
0.326938
0.360099
0.393646
0.427587
0.461933
0.496693
0.531877
0.567495
0.603559
0.64008
0.677069
0.714538
0.7525
0.790968
0.829957
0.869479
0.909551
0.950187
0.991404
1.03322
1.07565
1.11871
1.16243
1.20681
1.2519
1.29769
1.34423
1.39153
1.43962
1.48852
1.53827
1.58889
1.64041
1.69287
1.7463
1.80074
1.85623
1.91281
1.9705
0.0146792
0.0444138
0.0744664
0.104838
0.135532
0.166556
0.197917
0.229621
0.261678
0.294094
0.326879
0.360041
0.393588
0.42753
0.461876
0.496636
0.53182
0.567439
0.603502
0.640023
0.677012
0.714481
0.752443
0.790912
0.8299
0.869423
0.909494
0.95013
0.991347
1.03316
1.07559
1.11865
1.16237
1.20676
1.25184
1.29764
1.34417
1.39147
1.43956
1.48847
1.53821
1.58883
1.64035
1.69281
1.74624
1.80068
1.85616
1.91273
1.97044
0.0147293
0.0445091
0.0745831
0.104965
0.135666
0.166694
0.198057
0.229764
0.261822
0.294239
0.327025
0.360187
0.393735
0.427677
0.462023
0.496783
0.531968
0.567586
0.60365
0.640171
0.677159
0.714629
0.752591
0.79106
0.830048
0.869571
0.909642
0.950278
0.991495
1.03331
1.07574
1.1188
1.16252
1.20691
1.25199
1.29779
1.34432
1.39162
1.43971
1.48861
1.53836
1.58898
1.6405
1.69296
1.74638
1.80082
1.8563
1.91285
1.97052
0.0146824
0.0444231
0.074481
0.104857
0.135555
0.166582
0.197946
0.229652
0.26171
0.294128
0.326914
0.360076
0.393624
0.427566
0.461913
0.496673
0.531857
0.567476
0.60354
0.64006
0.677049
0.714519
0.752481
0.790949
0.829938
0.86946
0.909532
0.950168
0.991385
1.0332
1.07563
1.11869
1.16241
1.2068
1.25188
1.29768
1.34421
1.39151
1.4396
1.4885
1.53825
1.58887
1.64039
1.69284
1.74627
1.80071
1.85619
1.91275
1.97044
0.0147261
0.0445012
0.0745714
0.104951
0.13565
0.166676
0.198038
0.229744
0.261802
0.294219
0.327004
0.360166
0.393714
0.427656
0.462003
0.496763
0.531947
0.567565
0.603629
0.64015
0.677139
0.714608
0.752571
0.791039
0.830028
0.86955
0.909622
0.950258
0.991475
1.03329
1.07572
1.11878
1.1625
1.20689
1.25197
1.29777
1.3443
1.3916
1.43969
1.48859
1.53834
1.58896
1.64048
1.69294
1.74636
1.8008
1.85628
1.91284
1.97051
0.0146749
0.0444013
0.0744472
0.104814
0.135505
0.166527
0.197886
0.229589
0.261645
0.294062
0.326846
0.360008
0.393555
0.427497
0.461843
0.496603
0.531787
0.567406
0.60347
0.639991
0.676979
0.714448
0.752411
0.790879
0.829868
0.869391
0.909462
0.950098
0.991315
1.03313
1.07556
1.11862
1.16234
1.20673
1.25181
1.29761
1.34414
1.39144
1.43953
1.48843
1.53818
1.5888
1.64032
1.69278
1.74621
1.80065
1.85613
1.91271
1.97043
0.0147031
0.0444484
0.0744985
0.104864
0.135552
0.166571
0.197928
0.229629
0.261684
0.294099
0.326883
0.360044
0.393591
0.427533
0.461879
0.496638
0.531822
0.567441
0.603505
0.640025
0.677014
0.714483
0.752446
0.790914
0.829902
0.869425
0.909497
0.950133
0.99135
1.03316
1.07559
1.11866
1.16237
1.20676
1.25184
1.29764
1.34418
1.39148
1.43956
1.48847
1.53821
1.58883
1.64036
1.69282
1.74625
1.80069
1.85618
1.91276
1.97047
0.0146759
0.0443933
0.0744283
0.104785
0.135468
0.166484
0.197839
0.22954
0.261593
0.294008
0.326792
0.359953
0.393499
0.427441
0.461786
0.496546
0.53173
0.567349
0.603412
0.639933
0.676921
0.71439
0.752353
0.790821
0.82981
0.869332
0.909404
0.95004
0.991257
1.03307
1.0755
1.11856
1.16228
1.20667
1.25175
1.29755
1.34408
1.39138
1.43947
1.48838
1.53812
1.58874
1.64026
1.69272
1.74616
1.8006
1.85609
1.91269
1.97042
0.014666
0.0443764
0.0744095
0.104766
0.13545
0.166467
0.197823
0.229524
0.261578
0.293993
0.326776
0.359937
0.393484
0.427425
0.461771
0.496531
0.531715
0.567333
0.603397
0.639917
0.676906
0.714375
0.752337
0.790806
0.829794
0.869317
0.909388
0.950024
0.991241
1.03306
1.07549
1.11855
1.16226
1.20665
1.25173
1.29753
1.34407
1.39137
1.43946
1.48836
1.53811
1.58872
1.64025
1.69271
1.74614
1.80058
1.85608
1.91267
1.97041
0.0147188
0.044482
0.0745427
0.104915
0.135607
0.166629
0.197988
0.229691
0.261747
0.294163
0.326947
0.360108
0.393655
0.427597
0.461943
0.496703
0.531887
0.567505
0.603569
0.640089
0.677078
0.714547
0.752509
0.790978
0.829966
0.869488
0.90956
0.950196
0.991413
1.03323
1.07566
1.11872
1.16244
1.20682
1.25191
1.2977
1.34424
1.39154
1.43963
1.48853
1.53828
1.5889
1.64042
1.69288
1.74631
1.80075
1.85624
1.91281
1.9705
0.0146816
0.044418
0.0744713
0.104843
0.135538
0.166562
0.197923
0.229628
0.261686
0.294102
0.326888
0.360049
0.393597
0.427539
0.461885
0.496645
0.531829
0.567447
0.603511
0.640031
0.677019
0.714488
0.752451
0.790919
0.829907
0.86943
0.909501
0.950138
0.991354
1.03317
1.0756
1.11866
1.16238
1.20677
1.25185
1.29765
1.34418
1.39148
1.43957
1.48847
1.53822
1.58884
1.64036
1.69282
1.74625
1.80068
1.85617
1.91274
1.97044
0.0147231
0.0444965
0.0745671
0.104947
0.135647
0.166675
0.198038
0.229744
0.261802
0.29422
0.327005
0.360168
0.393715
0.427657
0.462003
0.496763
0.531947
0.567565
0.603629
0.640149
0.677138
0.714607
0.752569
0.791037
0.830026
0.869548
0.90962
0.950256
0.991473
1.03329
1.07572
1.11878
1.1625
1.20688
1.25197
1.29776
1.3443
1.3916
1.43969
1.48859
1.53834
1.58896
1.64048
1.69294
1.74636
1.8008
1.85628
1.91284
1.97051
0.0146845
0.0444256
0.0744827
0.104858
0.135556
0.166582
0.197945
0.229652
0.26171
0.294128
0.326913
0.360075
0.393623
0.427565
0.461911
0.496671
0.531855
0.567473
0.603536
0.640057
0.677045
0.714514
0.752476
0.790944
0.829933
0.869455
0.909527
0.950163
0.99138
1.03319
1.07562
1.11869
1.1624
1.20679
1.25187
1.29767
1.34421
1.39151
1.4396
1.4885
1.53825
1.58886
1.64039
1.69284
1.74627
1.80071
1.85619
1.91275
1.97045
0.0147196
0.0444888
0.0745567
0.104935
0.135634
0.16666
0.198022
0.229728
0.261785
0.294202
0.326988
0.360149
0.393696
0.427638
0.461984
0.496743
0.531927
0.567545
0.603609
0.640129
0.677117
0.714586
0.752548
0.791016
0.830005
0.869527
0.909599
0.950235
0.991452
1.03327
1.0757
1.11876
1.16247
1.20686
1.25195
1.29774
1.34428
1.39158
1.43967
1.48857
1.53832
1.58894
1.64046
1.69292
1.74635
1.80078
1.85626
1.91282
1.9705
0.0146821
0.044417
0.074468
0.104838
0.135531
0.166553
0.197913
0.229617
0.261673
0.294089
0.326873
0.360034
0.39358
0.427522
0.461867
0.496627
0.53181
0.567428
0.603491
0.640011
0.677
0.714468
0.75243
0.790899
0.829887
0.869409
0.909481
0.950117
0.991334
1.03315
1.07558
1.11864
1.16236
1.20674
1.25183
1.29763
1.34416
1.39146
1.43955
1.48845
1.5382
1.58882
1.64034
1.6928
1.74624
1.80067
1.85616
1.91273
1.97044
0.0147104
0.0444649
0.0745206
0.104889
0.135579
0.166599
0.197956
0.229658
0.261712
0.294127
0.32691
0.36007
0.393616
0.427556
0.461901
0.49666
0.531843
0.567461
0.603524
0.640044
0.677032
0.714501
0.752463
0.790931
0.829919
0.869442
0.909513
0.950149
0.991366
1.03318
1.07561
1.11867
1.16239
1.20678
1.25186
1.29766
1.3442
1.3915
1.43958
1.48849
1.53824
1.58886
1.64038
1.69284
1.74628
1.80072
1.85621
1.91278
1.97048
0.0146723
0.0443885
0.0744239
0.104781
0.135464
0.166479
0.197833
0.229532
0.261585
0.293998
0.32678
0.359939
0.393484
0.427425
0.461769
0.496528
0.531711
0.567328
0.603391
0.639911
0.676899
0.714368
0.752329
0.790797
0.829785
0.869308
0.909379
0.950015
0.991232
1.03305
1.07548
1.11854
1.16226
1.20664
1.25173
1.29753
1.34406
1.39136
1.43945
1.48836
1.5381
1.58872
1.64025
1.69271
1.74615
1.80059
1.85609
1.91268
1.97042
0.0146803
0.0444012
0.0744368
0.104793
0.135474
0.166488
0.19784
0.229539
0.26159
0.294002
0.326784
0.359943
0.393487
0.427427
0.461772
0.49653
0.531713
0.56733
0.603393
0.639912
0.6769
0.714369
0.752331
0.790799
0.829787
0.869309
0.90938
0.950017
0.991233
1.03305
1.07548
1.11854
1.16226
1.20665
1.25173
1.29753
1.34406
1.39136
1.43945
1.48836
1.53811
1.58873
1.64025
1.69272
1.74615
1.8006
1.8561
1.91269
1.97043
0.0146939
0.0444286
0.0744714
0.104831
0.135514
0.166529
0.197882
0.22958
0.261632
0.294044
0.326826
0.359984
0.393529
0.427469
0.461813
0.496571
0.531754
0.567371
0.603434
0.639953
0.676941
0.71441
0.752371
0.790839
0.829827
0.869349
0.909421
0.950057
0.991274
1.03309
1.07552
1.11858
1.1623
1.20669
1.25177
1.29757
1.3441
1.39141
1.43949
1.4884
1.53815
1.58877
1.6403
1.69276
1.7462
1.80064
1.85614
1.91273
1.97045
0.0146779
0.0444018
0.0744423
0.104802
0.135488
0.166504
0.197858
0.229557
0.26161
0.294022
0.326804
0.359963
0.393508
0.427448
0.461792
0.496551
0.531733
0.56735
0.603413
0.639932
0.67692
0.714389
0.75235
0.790818
0.829806
0.869329
0.9094
0.950036
0.991253
1.03307
1.0755
1.11856
1.16228
1.20666
1.25175
1.29755
1.34408
1.39138
1.43947
1.48838
1.53813
1.58875
1.64027
1.69274
1.74617
1.80062
1.85611
1.9127
1.97043
0.0147073
0.0444596
0.0745145
0.104883
0.135573
0.166592
0.197949
0.22965
0.261703
0.294117
0.326899
0.360059
0.393604
0.427544
0.461888
0.496647
0.53183
0.567447
0.60351
0.640029
0.677017
0.714486
0.752447
0.790915
0.829903
0.869425
0.909497
0.950133
0.991349
1.03316
1.07559
1.11866
1.16237
1.20676
1.25184
1.29764
1.34418
1.39148
1.43957
1.48848
1.53822
1.58884
1.64037
1.69283
1.74627
1.80071
1.8562
1.91278
1.97048
0.0146857
0.0444217
0.0744717
0.104839
0.13553
0.166551
0.197909
0.229611
0.261666
0.29408
0.326863
0.360023
0.393569
0.427509
0.461854
0.496613
0.531796
0.567413
0.603476
0.639995
0.676983
0.714452
0.752413
0.790881
0.829869
0.869392
0.909463
0.950099
0.991316
1.03313
1.07556
1.11862
1.16234
1.20673
1.25181
1.29761
1.34415
1.39145
1.43954
1.48844
1.53819
1.58881
1.64033
1.6928
1.74623
1.80067
1.85616
1.91273
1.97044
0.0147069
0.0444617
0.0745203
0.104892
0.135586
0.166609
0.197968
0.229671
0.261726
0.294142
0.326925
0.360086
0.393632
0.427573
0.461918
0.496676
0.531859
0.567477
0.60354
0.640059
0.677048
0.714516
0.752478
0.790946
0.829934
0.869456
0.909527
0.950163
0.99138
1.03319
1.07562
1.11869
1.1624
1.20679
1.25187
1.29767
1.34421
1.39151
1.4396
1.4885
1.53825
1.58887
1.6404
1.69286
1.74629
1.80073
1.85621
1.91279
1.97048
0.0146886
0.0444281
0.0744806
0.104851
0.135544
0.166566
0.197926
0.22963
0.261685
0.294101
0.326885
0.360046
0.393592
0.427533
0.461879
0.496638
0.531821
0.567438
0.603501
0.640021
0.677009
0.714478
0.752439
0.790907
0.829895
0.869418
0.909489
0.950125
0.991342
1.03316
1.07559
1.11865
1.16236
1.20675
1.25184
1.29763
1.34417
1.39147
1.43956
1.48847
1.53821
1.58883
1.64036
1.69282
1.74625
1.80069
1.85617
1.91274
1.97045
0.0147039
0.0444562
0.074514
0.104886
0.13558
0.166603
0.197963
0.229667
0.261723
0.294139
0.326923
0.360084
0.393631
0.427572
0.461917
0.496676
0.531859
0.567477
0.60354
0.64006
0.677048
0.714517
0.752478
0.790946
0.829934
0.869457
0.909528
0.950164
0.991381
1.0332
1.07562
1.11869
1.1624
1.20679
1.25188
1.29767
1.34421
1.39151
1.4396
1.4885
1.53825
1.58887
1.64039
1.69285
1.74629
1.80072
1.85621
1.91278
1.97047
0.0146901
0.0444304
0.0744829
0.104853
0.135545
0.166568
0.197927
0.229631
0.261687
0.294103
0.326887
0.360048
0.393595
0.427536
0.461881
0.49664
0.531824
0.567441
0.603504
0.640024
0.677012
0.714481
0.752443
0.790911
0.829899
0.869421
0.909492
0.950129
0.991345
1.03316
1.07559
1.11865
1.16237
1.20676
1.25184
1.29764
1.34418
1.39148
1.43956
1.48847
1.53822
1.58884
1.64036
1.69282
1.74625
1.80069
1.85617
1.91275
1.97045
0.0147
0.0444481
0.0745033
0.104874
0.135566
0.166589
0.197948
0.229652
0.261707
0.294123
0.326907
0.360068
0.393614
0.427555
0.461901
0.49666
0.531843
0.567461
0.603524
0.640044
0.677032
0.7145
0.752462
0.79093
0.829918
0.86944
0.909512
0.950148
0.991365
1.03318
1.07561
1.11867
1.16239
1.20678
1.25186
1.29766
1.34419
1.3915
1.43958
1.48849
1.53824
1.58885
1.64038
1.69284
1.74627
1.80071
1.85619
1.91277
1.97047
0.0146914
0.0444316
0.0744829
0.104851
0.135543
0.166564
0.197923
0.229626
0.261681
0.294096
0.32688
0.360041
0.393587
0.427528
0.461873
0.496632
0.531815
0.567433
0.603496
0.640016
0.677004
0.714473
0.752434
0.790902
0.82989
0.869413
0.909484
0.95012
0.991337
1.03315
1.07558
1.11864
1.16236
1.20675
1.25183
1.29763
1.34417
1.39147
1.43956
1.48846
1.53821
1.58883
1.64035
1.69281
1.74624
1.80068
1.85617
1.91275
1.97045
0.0146962
0.0444396
0.0744918
0.10486
0.135551
0.166572
0.19793
0.229632
0.261687
0.294102
0.326886
0.360046
0.393592
0.427533
0.461878
0.496637
0.53182
0.567437
0.6035
0.64002
0.677008
0.714477
0.752438
0.790906
0.829894
0.869417
0.909488
0.950124
0.991341
1.03316
1.07558
1.11865
1.16236
1.20675
1.25184
1.29763
1.34417
1.39147
1.43956
1.48847
1.53821
1.58883
1.64036
1.69282
1.74625
1.80069
1.85618
1.91275
1.97046
0.0146928
0.0444328
0.074483
0.10485
0.13554
0.16656
0.197917
0.229619
0.261674
0.294088
0.326871
0.360031
0.393577
0.427518
0.461862
0.496621
0.531804
0.567421
0.603484
0.640004
0.676992
0.714461
0.752422
0.79089
0.829878
0.8694
0.909472
0.950108
0.991325
1.03314
1.07557
1.11863
1.16235
1.20674
1.25182
1.29762
1.34416
1.39146
1.43955
1.48845
1.5382
1.58882
1.64034
1.6928
1.74624
1.80068
1.85617
1.91275
1.97046
0.0146924
0.0444316
0.074481
0.104847
0.135536
0.166556
0.197912
0.229614
0.261667
0.294082
0.326864
0.360024
0.39357
0.42751
0.461855
0.496613
0.531796
0.567413
0.603476
0.639996
0.676984
0.714452
0.752414
0.790882
0.829869
0.869392
0.909463
0.950099
0.991316
1.03313
1.07556
1.11862
1.16234
1.20673
1.25181
1.29761
1.34415
1.39145
1.43954
1.48844
1.53819
1.58881
1.64033
1.6928
1.74623
1.80067
1.85616
1.91274
1.97045
0.0146942
0.0444342
0.0744834
0.104849
0.135537
0.166556
0.197912
0.229613
0.261667
0.29408
0.326863
0.360022
0.393568
0.427508
0.461852
0.496611
0.531793
0.567411
0.603473
0.639993
0.676981
0.714449
0.752411
0.790879
0.829867
0.869389
0.90946
0.950096
0.991313
1.03313
1.07556
1.11862
1.16234
1.20673
1.25181
1.29761
1.34414
1.39145
1.43953
1.48844
1.53819
1.58881
1.64033
1.6928
1.74623
1.80067
1.85616
1.91274
1.97046
0.014688
0.044422
0.0744681
0.104832
0.135519
0.166538
0.197893
0.229594
0.261647
0.294061
0.326843
0.360002
0.393547
0.427487
0.461832
0.49659
0.531773
0.56739
0.603453
0.639972
0.67696
0.714428
0.75239
0.790858
0.829846
0.869368
0.909439
0.950075
0.991292
1.03311
1.07554
1.1186
1.16232
1.2067
1.25179
1.29759
1.34412
1.39142
1.43951
1.48842
1.53817
1.58879
1.64031
1.69278
1.74621
1.80065
1.85615
1.91273
1.97045
0.0146949
0.0444346
0.0744829
0.104848
0.135535
0.166554
0.197909
0.22961
0.261663
0.294076
0.326859
0.360018
0.393563
0.427503
0.461847
0.496606
0.531788
0.567406
0.603468
0.639988
0.676976
0.714444
0.752405
0.790873
0.829861
0.869383
0.909455
0.950091
0.991308
1.03312
1.07555
1.11861
1.16233
1.20672
1.2518
1.2976
1.34414
1.39144
1.43953
1.48843
1.53818
1.5888
1.64033
1.69279
1.74623
1.80067
1.85616
1.91274
1.97046
0.0146879
0.0444219
0.074468
0.104832
0.135519
0.166538
0.197893
0.229594
0.261647
0.294061
0.326843
0.360002
0.393547
0.427487
0.461832
0.49659
0.531773
0.56739
0.603453
0.639972
0.67696
0.714429
0.75239
0.790858
0.829846
0.869368
0.909439
0.950075
0.991292
1.03311
1.07554
1.1186
1.16232
1.2067
1.25179
1.29759
1.34412
1.39142
1.43951
1.48842
1.53817
1.58879
1.64031
1.69278
1.74621
1.80065
1.85615
1.91273
1.97045
0.0146942
0.0444342
0.0744833
0.104849
0.135537
0.166556
0.197912
0.229613
0.261667
0.294081
0.326863
0.360022
0.393568
0.427508
0.461852
0.496611
0.531794
0.567411
0.603474
0.639993
0.676981
0.71445
0.752411
0.790879
0.829867
0.869389
0.90946
0.950096
0.991313
1.03313
1.07556
1.11862
1.16234
1.20673
1.25181
1.29761
1.34414
1.39145
1.43953
1.48844
1.53819
1.58881
1.64033
1.6928
1.74623
1.80067
1.85616
1.91274
1.97046
0.0146925
0.0444317
0.0744811
0.104847
0.135536
0.166556
0.197912
0.229614
0.261668
0.294082
0.326865
0.360024
0.39357
0.42751
0.461855
0.496614
0.531796
0.567414
0.603476
0.639996
0.676984
0.714452
0.752414
0.790882
0.82987
0.869392
0.909463
0.950099
0.991316
1.03313
1.07556
1.11862
1.16234
1.20673
1.25181
1.29761
1.34415
1.39145
1.43954
1.48844
1.53819
1.58881
1.64033
1.6928
1.74623
1.80067
1.85616
1.91274
1.97045
0.0146929
0.044433
0.0744832
0.10485
0.13554
0.16656
0.197918
0.22962
0.261674
0.294088
0.326872
0.360032
0.393577
0.427518
0.461863
0.496622
0.531804
0.567422
0.603485
0.640004
0.676992
0.714461
0.752423
0.79089
0.829878
0.869401
0.909472
0.950108
0.991325
1.03314
1.07557
1.11863
1.16235
1.20674
1.25182
1.29762
1.34416
1.39146
1.43955
1.48845
1.5382
1.58882
1.64034
1.6928
1.74624
1.80068
1.85617
1.91275
1.97046
0.0146961
0.0444396
0.0744918
0.10486
0.135551
0.166572
0.19793
0.229632
0.261687
0.294102
0.326886
0.360046
0.393592
0.427533
0.461878
0.496637
0.53182
0.567437
0.6035
0.64002
0.677008
0.714477
0.752438
0.790906
0.829894
0.869417
0.909488
0.950124
0.991341
1.03316
1.07558
1.11865
1.16236
1.20675
1.25184
1.29763
1.34417
1.39147
1.43956
1.48847
1.53821
1.58883
1.64036
1.69282
1.74625
1.80069
1.85618
1.91275
1.97046
0.0146913
0.0444314
0.0744828
0.104851
0.135543
0.166564
0.197923
0.229626
0.261681
0.294096
0.32688
0.360041
0.393587
0.427528
0.461873
0.496632
0.531815
0.567433
0.603496
0.640016
0.677004
0.714473
0.752434
0.790902
0.82989
0.869413
0.909484
0.95012
0.991337
1.03315
1.07558
1.11864
1.16236
1.20675
1.25183
1.29763
1.34417
1.39147
1.43956
1.48846
1.53821
1.58883
1.64035
1.69281
1.74624
1.80068
1.85617
1.91275
1.97045
0.0147
0.0444481
0.0745033
0.104874
0.135566
0.166589
0.197948
0.229651
0.261707
0.294123
0.326907
0.360068
0.393614
0.427555
0.4619
0.49666
0.531843
0.56746
0.603524
0.640043
0.677031
0.7145
0.752462
0.79093
0.829918
0.86944
0.909512
0.950148
0.991365
1.03318
1.07561
1.11867
1.16239
1.20678
1.25186
1.29766
1.34419
1.3915
1.43958
1.48849
1.53824
1.58885
1.64038
1.69284
1.74627
1.80071
1.85619
1.91277
1.97047
0.0146902
0.0444305
0.0744829
0.104853
0.135545
0.166568
0.197927
0.229631
0.261687
0.294103
0.326887
0.360048
0.393595
0.427536
0.461881
0.49664
0.531823
0.567441
0.603504
0.640024
0.677012
0.714481
0.752443
0.790911
0.829899
0.869421
0.909492
0.950128
0.991345
1.03316
1.07559
1.11865
1.16237
1.20676
1.25184
1.29764
1.34418
1.39148
1.43956
1.48847
1.53822
1.58884
1.64036
1.69282
1.74625
1.80069
1.85617
1.91275
1.97045
0.0147039
0.0444562
0.074514
0.104886
0.13558
0.166603
0.197963
0.229667
0.261723
0.294139
0.326923
0.360084
0.393631
0.427572
0.461917
0.496676
0.531859
0.567477
0.60354
0.64006
0.677048
0.714517
0.752478
0.790946
0.829934
0.869457
0.909528
0.950164
0.991381
1.0332
1.07562
1.11869
1.1624
1.20679
1.25188
1.29767
1.34421
1.39151
1.4396
1.4885
1.53825
1.58887
1.64039
1.69285
1.74629
1.80072
1.85621
1.91278
1.97047
0.0146886
0.0444281
0.0744806
0.104851
0.135544
0.166566
0.197926
0.22963
0.261686
0.294101
0.326885
0.360046
0.393592
0.427533
0.461879
0.496638
0.531821
0.567438
0.603502
0.640021
0.677009
0.714478
0.75244
0.790908
0.829896
0.869418
0.909489
0.950125
0.991342
1.03316
1.07559
1.11865
1.16237
1.20675
1.25184
1.29764
1.34417
1.39147
1.43956
1.48847
1.53821
1.58883
1.64036
1.69282
1.74625
1.80069
1.85617
1.91274
1.97045
0.0147069
0.0444616
0.0745203
0.104892
0.135586
0.166609
0.197968
0.229671
0.261726
0.294142
0.326925
0.360086
0.393632
0.427573
0.461918
0.496677
0.53186
0.567477
0.60354
0.64006
0.677048
0.714517
0.752478
0.790946
0.829934
0.869456
0.909528
0.950164
0.991381
1.03319
1.07562
1.11869
1.1624
1.20679
1.25188
1.29767
1.34421
1.39151
1.4396
1.4885
1.53825
1.58887
1.6404
1.69286
1.74629
1.80073
1.85621
1.91279
1.97048
0.0146857
0.0444217
0.0744716
0.104839
0.13553
0.166551
0.197909
0.229611
0.261666
0.29408
0.326863
0.360023
0.393569
0.42751
0.461854
0.496613
0.531796
0.567413
0.603476
0.639996
0.676984
0.714452
0.752414
0.790882
0.82987
0.869392
0.909464
0.9501
0.991316
1.03313
1.07556
1.11862
1.16234
1.20673
1.25181
1.29761
1.34415
1.39145
1.43954
1.48844
1.53819
1.58881
1.64033
1.6928
1.74623
1.80067
1.85616
1.91273
1.97044
0.0147074
0.0444597
0.0745148
0.104883
0.135573
0.166592
0.197949
0.22965
0.261703
0.294117
0.326899
0.360059
0.393604
0.427544
0.461889
0.496647
0.53183
0.567447
0.60351
0.64003
0.677018
0.714486
0.752448
0.790916
0.829904
0.869426
0.909497
0.950133
0.99135
1.03316
1.07559
1.11866
1.16237
1.20676
1.25184
1.29764
1.34418
1.39148
1.43957
1.48848
1.53822
1.58884
1.64037
1.69283
1.74627
1.80071
1.8562
1.91278
1.97048
0.014678
0.044402
0.0744424
0.104803
0.135488
0.166504
0.197858
0.229558
0.26161
0.294023
0.326805
0.359964
0.393508
0.427448
0.461793
0.496551
0.531734
0.567351
0.603414
0.639933
0.676921
0.714389
0.752351
0.790819
0.829807
0.869329
0.909401
0.950037
0.991253
1.03307
1.0755
1.11856
1.16228
1.20667
1.25175
1.29755
1.34408
1.39139
1.43947
1.48838
1.53813
1.58875
1.64027
1.69274
1.74617
1.80062
1.85611
1.9127
1.97043
0.0146938
0.0444285
0.0744712
0.104831
0.135514
0.166529
0.197882
0.229581
0.261632
0.294044
0.326826
0.359985
0.393529
0.427469
0.461813
0.496572
0.531754
0.567371
0.603434
0.639954
0.676942
0.71441
0.752372
0.79084
0.829828
0.86935
0.909421
0.950057
0.991274
1.03309
1.07552
1.11858
1.1623
1.20669
1.25177
1.29757
1.3441
1.39141
1.43949
1.4884
1.53815
1.58877
1.6403
1.69276
1.7462
1.80064
1.85614
1.91273
1.97045
0.0146803
0.0444012
0.0744369
0.104793
0.135474
0.166488
0.197841
0.229539
0.26159
0.294003
0.326784
0.359943
0.393488
0.427428
0.461772
0.49653
0.531713
0.56733
0.603393
0.639913
0.676901
0.714369
0.752331
0.790799
0.829787
0.869309
0.909381
0.950017
0.991233
1.03305
1.07548
1.11854
1.16226
1.20665
1.25173
1.29753
1.34406
1.39136
1.43945
1.48836
1.53811
1.58873
1.64025
1.69272
1.74615
1.8006
1.8561
1.91269
1.97043
0.0146724
0.0443885
0.0744239
0.104781
0.135464
0.166479
0.197833
0.229532
0.261585
0.293998
0.32678
0.359939
0.393484
0.427425
0.461769
0.496528
0.531711
0.567328
0.603391
0.639911
0.676899
0.714368
0.752329
0.790797
0.829785
0.869308
0.909379
0.950015
0.991232
1.03305
1.07548
1.11854
1.16225
1.20664
1.25173
1.29752
1.34406
1.39136
1.43945
1.48836
1.5381
1.58872
1.64025
1.69271
1.74615
1.80059
1.85609
1.91268
1.97042
0.0147104
0.0444649
0.0745206
0.104889
0.135579
0.166599
0.197956
0.229658
0.261712
0.294127
0.32691
0.36007
0.393616
0.427556
0.461901
0.49666
0.531843
0.567461
0.603524
0.640044
0.677032
0.714501
0.752463
0.790931
0.829919
0.869441
0.909513
0.950149
0.991366
1.03318
1.07561
1.11867
1.16239
1.20678
1.25186
1.29766
1.3442
1.3915
1.43958
1.48849
1.53824
1.58886
1.64038
1.69284
1.74628
1.80072
1.85621
1.91278
1.97048
0.0146821
0.044417
0.0744681
0.104838
0.135531
0.166553
0.197913
0.229617
0.261673
0.294089
0.326873
0.360034
0.393581
0.427522
0.461867
0.496627
0.53181
0.567428
0.603491
0.640011
0.677
0.714468
0.75243
0.790898
0.829887
0.869409
0.909481
0.950117
0.991334
1.03315
1.07558
1.11864
1.16236
1.20674
1.25183
1.29763
1.34416
1.39146
1.43955
1.48846
1.5382
1.58882
1.64034
1.6928
1.74624
1.80067
1.85616
1.91273
1.97044
0.0147196
0.0444888
0.0745566
0.104935
0.135634
0.16666
0.198022
0.229728
0.261785
0.294202
0.326988
0.360149
0.393697
0.427638
0.461984
0.496744
0.531928
0.567546
0.603609
0.640129
0.677118
0.714587
0.752549
0.791017
0.830005
0.869528
0.909599
0.950235
0.991452
1.03327
1.0757
1.11876
1.16247
1.20686
1.25195
1.29774
1.34428
1.39158
1.43967
1.48857
1.53832
1.58894
1.64046
1.69292
1.74635
1.80078
1.85626
1.91282
1.9705
0.0146845
0.0444256
0.0744828
0.104858
0.135556
0.166583
0.197946
0.229652
0.26171
0.294128
0.326914
0.360076
0.393623
0.427565
0.461911
0.496671
0.531855
0.567473
0.603537
0.640057
0.677046
0.714515
0.752477
0.790945
0.829934
0.869456
0.909528
0.950164
0.991381
1.03319
1.07562
1.11869
1.1624
1.20679
1.25187
1.29767
1.34421
1.39151
1.4396
1.4885
1.53825
1.58886
1.64039
1.69284
1.74627
1.80071
1.85619
1.91275
1.97045
0.0147231
0.0444966
0.0745672
0.104948
0.135647
0.166675
0.198038
0.229745
0.261803
0.29422
0.327006
0.360168
0.393716
0.427658
0.462004
0.496764
0.531948
0.567566
0.60363
0.64015
0.677139
0.714608
0.75257
0.791039
0.830027
0.869549
0.909621
0.950257
0.991474
1.03329
1.07572
1.11878
1.1625
1.20689
1.25197
1.29777
1.3443
1.3916
1.43969
1.48859
1.53834
1.58896
1.64048
1.69294
1.74637
1.8008
1.85628
1.91284
1.97051
0.0146816
0.0444181
0.0744714
0.104843
0.135538
0.166563
0.197924
0.229629
0.261686
0.294103
0.326888
0.36005
0.393597
0.427539
0.461885
0.496645
0.531829
0.567448
0.603511
0.640032
0.67702
0.71449
0.752452
0.79092
0.829908
0.869431
0.909503
0.950139
0.991356
1.03317
1.0756
1.11866
1.16238
1.20677
1.25185
1.29765
1.34418
1.39148
1.43957
1.48847
1.53822
1.58884
1.64036
1.69282
1.74625
1.80069
1.85617
1.91274
1.97044
0.0147189
0.0444823
0.074543
0.104915
0.135608
0.166629
0.197988
0.229692
0.261747
0.294163
0.326948
0.360109
0.393656
0.427598
0.461944
0.496704
0.531888
0.567506
0.60357
0.64009
0.677079
0.714548
0.75251
0.790979
0.829967
0.86949
0.909561
0.950197
0.991414
1.03323
1.07566
1.11872
1.16244
1.20683
1.25191
1.29771
1.34424
1.39154
1.43963
1.48853
1.53828
1.5889
1.64042
1.69288
1.74631
1.80075
1.85624
1.91281
1.9705
0.014666
0.0443764
0.0744096
0.104766
0.135451
0.166467
0.197823
0.229524
0.261578
0.293993
0.326777
0.359938
0.393485
0.427426
0.461772
0.496532
0.531716
0.567334
0.603398
0.639918
0.676907
0.714376
0.752338
0.790807
0.829795
0.869318
0.909389
0.950026
0.991242
1.03306
1.07549
1.11855
1.16226
1.20665
1.25174
1.29753
1.34407
1.39137
1.43946
1.48836
1.53811
1.58873
1.64025
1.69271
1.74614
1.80058
1.85608
1.91267
1.97041
0.0146759
0.0443933
0.0744283
0.104785
0.135469
0.166485
0.197839
0.22954
0.261594
0.294009
0.326792
0.359953
0.3935
0.427441
0.461787
0.496547
0.531731
0.567349
0.603413
0.639933
0.676922
0.714391
0.752353
0.790822
0.82981
0.869333
0.909405
0.950041
0.991258
1.03307
1.0755
1.11856
1.16228
1.20667
1.25175
1.29755
1.34409
1.39138
1.43947
1.48838
1.53812
1.58874
1.64026
1.69272
1.74616
1.8006
1.8561
1.91269
1.97042
0.0147032
0.0444486
0.0744986
0.104864
0.135552
0.166571
0.197928
0.22963
0.261684
0.2941
0.326884
0.360045
0.393591
0.427533
0.461879
0.496639
0.531823
0.567441
0.603505
0.640026
0.677014
0.714484
0.752446
0.790914
0.829903
0.869425
0.909497
0.950133
0.99135
1.03316
1.07559
1.11866
1.16237
1.20676
1.25184
1.29764
1.34418
1.39148
1.43956
1.48847
1.53821
1.58883
1.64036
1.69282
1.74625
1.80069
1.85618
1.91276
1.97047
0.0146749
0.0444014
0.0744474
0.104814
0.135505
0.166527
0.197886
0.22959
0.261646
0.294062
0.326847
0.360008
0.393556
0.427498
0.461844
0.496604
0.531788
0.567406
0.60347
0.639991
0.67698
0.714449
0.752411
0.79088
0.829868
0.869391
0.909462
0.950099
0.991315
1.03313
1.07556
1.11862
1.16234
1.20673
1.25181
1.29761
1.34414
1.39144
1.43953
1.48843
1.53818
1.5888
1.64032
1.69278
1.74621
1.80065
1.85613
1.91271
1.97043
0.0147262
0.0445013
0.0745716
0.104951
0.13565
0.166676
0.198039
0.229745
0.261802
0.294219
0.327005
0.360167
0.393715
0.427657
0.462003
0.496763
0.531947
0.567566
0.60363
0.640151
0.677139
0.714609
0.752571
0.79104
0.830028
0.869551
0.909622
0.950259
0.991475
1.03329
1.07572
1.11878
1.1625
1.20689
1.25197
1.29777
1.3443
1.3916
1.43969
1.48859
1.53834
1.58896
1.64048
1.69294
1.74636
1.8008
1.85628
1.91284
1.97051
0.0146824
0.044423
0.0744809
0.104857
0.135555
0.166582
0.197946
0.229652
0.261711
0.294128
0.326914
0.360077
0.393624
0.427567
0.461913
0.496673
0.531858
0.567476
0.60354
0.640061
0.67705
0.714519
0.752481
0.79095
0.829938
0.869461
0.909533
0.950169
0.991386
1.0332
1.07563
1.11869
1.16241
1.2068
1.25188
1.29768
1.34421
1.39151
1.4396
1.4885
1.53825
1.58887
1.64039
1.69285
1.74627
1.80071
1.85619
1.91275
1.97044
0.0147292
0.0445091
0.074583
0.104965
0.135666
0.166694
0.198057
0.229764
0.261822
0.29424
0.327025
0.360188
0.393735
0.427678
0.462024
0.496784
0.531968
0.567587
0.603651
0.640171
0.67716
0.71463
0.752592
0.79106
0.830049
0.869572
0.909643
0.950279
0.991496
1.03331
1.07574
1.1188
1.16252
1.20691
1.25199
1.29779
1.34432
1.39162
1.43971
1.48861
1.53836
1.58898
1.6405
1.69296
1.74638
1.80082
1.8563
1.91285
1.97052
0.0146792
0.0444139
0.0744664
0.104838
0.135532
0.166556
0.197917
0.229622
0.261678
0.294095
0.32688
0.360042
0.393589
0.427531
0.461877
0.496637
0.531821
0.56744
0.603504
0.640024
0.677013
0.714482
0.752445
0.790913
0.829902
0.869424
0.909496
0.950132
0.991349
1.03316
1.07559
1.11866
1.16237
1.20676
1.25184
1.29764
1.34418
1.39148
1.43956
1.48847
1.53821
1.58883
1.64035
1.69281
1.74624
1.80068
1.85616
1.91273
1.97044
0.0147206
0.0444837
0.0745428
0.104913
0.135604
0.166624
0.197982
0.229684
0.261739
0.294155
0.326939
0.3601
0.393647
0.427588
0.461934
0.496694
0.531878
0.567497
0.60356
0.640081
0.67707
0.714539
0.752501
0.79097
0.829958
0.869481
0.909553
0.950189
0.991406
1.03322
1.07565
1.11871
1.16243
1.20682
1.2519
1.2977
1.34423
1.39153
1.43962
1.48852
1.53827
1.58889
1.64041
1.69287
1.7463
1.80074
1.85623
1.91281
1.9705
0.0146587
0.0443583
0.0743839
0.104735
0.135416
0.16643
0.197784
0.229484
0.261537
0.293952
0.326735
0.359896
0.393442
0.427384
0.46173
0.496489
0.531673
0.567292
0.603355
0.639876
0.676865
0.714334
0.752296
0.790765
0.829753
0.869276
0.909348
0.949984
0.991201
1.03301
1.07544
1.11851
1.16222
1.20661
1.25169
1.29749
1.34403
1.39133
1.43942
1.48832
1.53806
1.58868
1.64021
1.69267
1.7461
1.80055
1.85604
1.91264
1.97039
0.0146586
0.0443582
0.0743837
0.104736
0.135416
0.16643
0.197784
0.229484
0.261537
0.293951
0.326734
0.359895
0.393441
0.427383
0.461728
0.496488
0.531672
0.56729
0.603354
0.639875
0.676863
0.714333
0.752295
0.790763
0.829752
0.869274
0.909346
0.949982
0.991199
1.03301
1.07544
1.1185
1.16222
1.20661
1.25169
1.29749
1.34403
1.39133
1.43941
1.48832
1.53806
1.58868
1.64021
1.69267
1.7461
1.80054
1.85604
1.91264
1.97039