/*--------------------------------*- C++ -*----------------------------------*\
  =========                 |
  \\      /  F ield         | OpenFOAM: The Open Source CFD Toolbox
   \\    /   O peration     | Website:  https://openfoam.org
    \\  /    A nd           | Version:  6
     \\/     M anipulation  |
\*---------------------------------------------------------------------------*/
FoamFile
{
    version     2.0;
    format      ascii;
    class       volScalarField;
    location    "30";
    object      gradTy;
}
// * * * * * * * * * * * * * * * * * * * * * * * * * * * * * * * * * * * * * //

dimensions      [0 -1 0 1 0 0 0];

internalField   nonuniform List<scalar> 
13524
(
2.99181
3.02667
3.06052
3.09419
3.12805
3.16233
3.1972
3.23272
3.26898
3.30603
3.34388
3.3826
3.4222
3.46273
3.50422
3.54673
3.59028
3.6349
3.68065
3.72755
3.77565
3.82501
3.87568
3.92771
3.98116
4.03609
4.09254
4.1506
4.21033
4.27182
4.33514
4.40037
4.46758
4.53687
4.60833
4.68208
4.75822
4.83688
4.91817
5.00224
5.08924
5.17933
5.27269
5.36951
5.47
5.57444
5.68316
5.79672
5.91622
3.00029
3.02986
3.06126
3.09376
3.12705
3.16107
3.19581
3.23126
3.26749
3.3045
3.34234
3.38104
3.42062
3.46112
3.5026
3.5451
3.58863
3.63323
3.67895
3.72582
3.77391
3.82324
3.87389
3.9259
3.97933
4.03422
4.09065
4.14868
4.20839
4.26986
4.33315
4.39835
4.46552
4.53478
4.60621
4.67993
4.75604
4.83465
4.91589
4.99991
5.08686
5.17688
5.27013
5.36679
5.46701
5.57092
5.67846
5.78896
5.89926
2.8738
2.90553
2.93686
2.96836
3.00034
3.03293
3.06617
3.10011
3.13481
3.17029
3.20657
3.24366
3.28161
3.32047
3.36027
3.40104
3.44279
3.48556
3.52942
3.57439
3.62053
3.66787
3.71646
3.76635
3.8176
3.87026
3.9244
3.98008
4.03738
4.09634
4.15705
4.21959
4.28404
4.35048
4.41902
4.48973
4.56274
4.63815
4.71609
4.79669
4.88008
4.96641
5.05583
5.14849
5.24452
5.34405
5.4472
5.55431
5.66748
2.83414
2.86129
2.8902
2.92028
2.95126
2.98302
3.01552
3.0488
3.08284
3.11767
3.15329
3.18973
3.22704
3.26525
3.30438
3.34445
3.38549
3.42755
3.47068
3.51491
3.56028
3.60682
3.65459
3.70365
3.75404
3.80584
3.85908
3.91384
3.97017
4.02815
4.08785
4.14935
4.21273
4.27807
4.34545
4.41498
4.48677
4.56093
4.63758
4.71683
4.79883
4.88372
4.97164
5.06275
5.15717
5.25499
5.35622
5.46044
5.56544
2.74909
2.77887
2.80829
2.83798
2.8682
2.89904
2.93059
2.96287
2.9959
3.02969
3.06427
3.09967
3.13592
3.17304
3.21104
3.24996
3.28983
3.33071
3.37263
3.41561
3.45969
3.50491
3.55133
3.599
3.64799
3.69832
3.75006
3.80326
3.858
3.91434
3.97236
4.03213
4.09371
4.1572
4.22268
4.29025
4.36002
4.43208
4.50657
4.58359
4.66328
4.74579
4.83126
4.91984
5.0117
5.10699
5.20595
5.30911
5.41873
2.65867
2.68373
2.7105
2.73842
2.76723
2.79683
2.82718
2.85826
2.89008
2.92266
2.95601
2.99016
3.02512
3.06091
3.09755
3.13509
3.17357
3.213
3.25344
3.29489
3.3374
3.38102
3.42581
3.47181
3.51905
3.5676
3.61751
3.66883
3.72164
3.77599
3.83196
3.8896
3.94901
4.01026
4.07343
4.13861
4.20591
4.27543
4.34729
4.4216
4.49849
4.57811
4.6606
4.74614
4.83488
4.92701
5.02265
5.12163
5.22209
2.61753
2.64535
2.67313
2.70129
2.72999
2.75934
2.78934
2.82005
2.85147
2.88364
2.91656
2.95026
2.98475
3.02005
3.05621
3.09326
3.13123
3.17013
3.21001
3.2509
3.29285
3.3359
3.38009
3.42547
3.47208
3.51998
3.56922
3.61986
3.67196
3.72559
3.7808
3.83768
3.8963
3.95673
4.01905
4.08336
4.14976
4.21836
4.28927
4.36259
4.43848
4.51706
4.5985
4.68297
4.77068
4.86188
4.95693
5.05662
5.16347
2.4746
2.49915
2.52475
2.55114
2.57825
2.60601
2.63442
2.66348
2.69321
2.72363
2.75476
2.7866
2.81918
2.85254
2.88671
2.92171
2.95757
2.99431
3.03198
3.07061
3.11024
3.1509
3.19263
3.23549
3.27951
3.32476
3.37127
3.41911
3.46831
3.51896
3.57111
3.62484
3.68021
3.73728
3.79615
3.8569
3.91962
3.98442
4.0514
4.12066
4.19234
4.26658
4.34353
4.42335
4.50624
4.59245
4.68222
4.77572
4.87206
2.47011
2.4956
2.52182
2.54867
2.57608
2.60405
2.63259
2.66175
2.69155
2.72202
2.75315
2.785
2.81758
2.85095
2.88511
2.92009
2.95593
2.99265
3.03031
3.06892
3.10853
3.14916
3.19087
3.23371
3.27772
3.32294
3.36942
3.41723
3.46641
3.51703
3.56916
3.62285
3.67819
3.73523
3.79407
3.85478
3.91747
3.98224
4.04917
4.1184
4.19004
4.26423
4.34112
4.42086
4.50366
4.58977
4.67953
4.77366
4.87395
2.2973
2.32393
2.34981
2.37558
2.40152
2.42783
2.45459
2.48187
2.50971
2.53814
2.5672
2.59692
2.62733
2.65845
2.6903
2.72293
2.75635
2.7906
2.82572
2.86173
2.89865
2.93654
2.97544
3.01539
3.05643
3.09859
3.14194
3.18652
3.23238
3.27958
3.32819
3.37826
3.42986
3.48305
3.53791
3.59453
3.65299
3.71338
3.77579
3.84034
3.90713
3.97628
4.04793
4.12221
4.19928
4.27927
4.36239
4.44889
4.53939
2.29035
2.31321
2.33732
2.36219
2.38765
2.41366
2.44019
2.46728
2.49494
2.5232
2.55209
2.58164
2.61186
2.64279
2.67446
2.70689
2.74011
2.77416
2.80907
2.84486
2.88157
2.91924
2.95791
2.99762
3.03842
3.08033
3.12343
3.16774
3.21333
3.26026
3.30858
3.35836
3.40965
3.46253
3.51707
3.57336
3.63147
3.6915
3.75355
3.81771
3.88409
3.95282
4.024
4.09776
4.17421
4.25342
4.33534
4.41949
4.50372
2.15453
2.17816
2.2016
2.22523
2.24923
2.27367
2.29861
2.32407
2.35009
2.37668
2.40387
2.43168
2.46013
2.48926
2.51908
2.54962
2.58091
2.61298
2.64586
2.67957
2.71415
2.74963
2.78606
2.82346
2.86188
2.90137
2.94196
2.9837
3.02664
3.07084
3.11635
3.16324
3.21155
3.26136
3.31274
3.36575
3.42049
3.47704
3.53548
3.59591
3.65843
3.72315
3.79018
3.85962
3.93157
4.00613
4.08337
4.16357
4.24815
2.09908
2.11954
2.14114
2.16353
2.18654
2.2101
2.23421
2.25887
2.28409
2.30989
2.33629
2.36329
2.39092
2.41921
2.44819
2.47786
2.50827
2.53943
2.57138
2.60414
2.63775
2.67223
2.70762
2.74397
2.78131
2.81968
2.85913
2.8997
2.94143
2.98438
3.02862
3.07419
3.12114
3.16955
3.21948
3.27101
3.32421
3.37917
3.43597
3.4947
3.55547
3.61838
3.68353
3.75103
3.82098
3.89347
3.96851
4.04589
4.12431
2.0054
2.02691
2.04832
2.06999
2.09203
2.11454
2.13755
2.16108
2.18516
2.20981
2.23502
2.26083
2.28724
2.31429
2.342
2.37038
2.39945
2.42926
2.45982
2.49116
2.52331
2.55629
2.59015
2.62492
2.66065
2.69736
2.73509
2.7739
2.81382
2.85491
2.89723
2.94082
2.98574
3.03204
3.07981
3.1291
3.18
3.23258
3.28692
3.34312
3.40127
3.46147
3.52383
3.58847
3.6555
3.72504
3.79726
3.87253
3.95232
1.90293
1.92131
1.94068
1.96075
1.9814
2.00258
2.02428
2.04651
2.06927
2.09257
2.11642
2.14083
2.16583
2.19143
2.21766
2.24453
2.27206
2.30028
2.32922
2.35889
2.38933
2.42056
2.45262
2.48555
2.51938
2.55414
2.58987
2.62661
2.66441
2.70332
2.74339
2.78467
2.82721
2.87106
2.91629
2.96297
3.01117
3.06096
3.11243
3.16566
3.22074
3.27778
3.33689
3.39817
3.46176
3.52779
3.59635
3.66738
3.73985
1.84995
1.86942
1.8889
1.90866
1.92882
1.94945
1.97057
1.99219
2.01433
2.037
2.06021
2.08397
2.1083
2.13322
2.15875
2.1849
2.2117
2.23917
2.26733
2.29622
2.32585
2.35625
2.38746
2.41951
2.45244
2.48627
2.52106
2.55683
2.59363
2.6315
2.67051
2.71069
2.7521
2.79479
2.83883
2.88427
2.93119
2.97967
3.02978
3.08161
3.13525
3.1908
3.24839
3.30813
3.37017
3.43468
3.50189
3.57222
3.64698
1.703
1.71923
1.73639
1.75422
1.77263
1.79154
1.81093
1.8308
1.85114
1.87198
1.89331
1.91516
1.93752
1.96042
1.98388
2.00792
2.03255
2.0578
2.08368
2.11023
2.13746
2.1654
2.19408
2.22354
2.2538
2.28489
2.31686
2.34973
2.38355
2.41836
2.45421
2.49115
2.5292
2.56844
2.60891
2.65068
2.6938
2.73836
2.78442
2.83206
2.88137
2.93245
2.98541
3.04037
3.09747
3.1569
3.21883
3.28339
3.35001
1.68743
1.70469
1.72235
1.74042
1.75892
1.77783
1.79718
1.81697
1.83723
1.85795
1.87916
1.90087
1.92308
1.94583
1.96913
1.99299
2.01744
2.0425
2.0682
2.09455
2.12158
2.14932
2.17778
2.20702
2.23706
2.26792
2.29965
2.33228
2.36585
2.40041
2.43599
2.47265
2.51042
2.54937
2.58954
2.631
2.67381
2.71803
2.76375
2.81104
2.85998
2.91069
2.96325
3.01781
3.07449
3.13351
3.19515
3.26003
3.32988
1.50064
1.51708
1.53344
1.54992
1.56664
1.58366
1.60101
1.61872
1.63683
1.65534
1.67427
1.69363
1.71344
1.73372
1.75449
1.77576
1.79755
1.81989
1.84279
1.86627
1.89035
1.91506
1.94043
1.96648
1.99325
2.02075
2.04902
2.07809
2.108
2.13879
2.1705
2.20316
2.23682
2.27152
2.30731
2.34425
2.38239
2.4218
2.46253
2.50466
2.54826
2.59343
2.64024
2.68881
2.73924
2.79167
2.84621
2.90297
2.96167
1.50094
1.51637
1.53238
1.54877
1.56551
1.58257
1.59998
1.61774
1.63589
1.65443
1.67338
1.69275
1.71258
1.73287
1.75364
1.77491
1.7967
1.81903
1.84193
1.8654
1.88948
1.91418
1.93954
1.96558
1.99233
2.01982
2.04808
2.07714
2.10704
2.13781
2.16951
2.20215
2.23579
2.27048
2.30625
2.34317
2.38129
2.42067
2.46138
2.50347
2.54704
2.59215
2.6389
2.68736
2.73764
2.78982
2.84396
2.90007
2.95792
1.3208
1.33554
1.35015
1.36485
1.37973
1.39485
1.41024
1.42594
1.44197
1.45833
1.47505
1.49215
1.50964
1.52754
1.54586
1.56462
1.58383
1.60352
1.62371
1.64441
1.66563
1.68741
1.70977
1.73272
1.75631
1.78054
1.80546
1.83107
1.85743
1.88456
1.91249
1.94127
1.97093
2.0015
2.03303
2.06557
2.09917
2.13388
2.16976
2.20685
2.24523
2.28497
2.32613
2.36878
2.41299
2.45881
2.50629
2.55548
2.60665
1.3
1.31334
1.32717
1.34135
1.35585
1.37065
1.38575
1.40116
1.4169
1.43298
1.44942
1.46622
1.48341
1.501
1.519
1.53744
1.55633
1.57568
1.59552
1.61586
1.63672
1.65812
1.68009
1.70265
1.72582
1.74964
1.77412
1.79929
1.82519
1.85185
1.8793
1.90758
1.93672
1.96676
1.99774
2.02971
2.06272
2.09683
2.13207
2.16851
2.20621
2.24523
2.28564
2.32751
2.37088
2.4158
2.46228
2.51017
2.5588
1.14765
1.15993
1.1723
1.18486
1.19766
1.21071
1.22403
1.23763
1.25152
1.26572
1.28023
1.29508
1.31026
1.32579
1.3417
1.35798
1.37467
1.39176
1.40929
1.42725
1.44568
1.46459
1.48399
1.50392
1.52439
1.54543
1.56705
1.58929
1.61217
1.63571
1.65996
1.68493
1.71067
1.7372
1.76457
1.79281
1.82196
1.85208
1.8832
1.91538
1.94867
1.98312
2.0188
2.05575
2.09403
2.13371
2.17483
2.21753
2.26237
1.09682
1.10795
1.11947
1.1313
1.14343
1.15582
1.16849
1.18144
1.19468
1.20822
1.22206
1.23622
1.2507
1.26553
1.28071
1.29625
1.31217
1.32849
1.34522
1.36237
1.37996
1.39801
1.41653
1.43555
1.45509
1.47517
1.49581
1.51704
1.53887
1.56135
1.58449
1.60833
1.6329
1.65822
1.68434
1.7113
1.73913
1.76787
1.79758
1.82829
1.86006
1.89295
1.927
1.96228
1.99884
2.03674
2.07603
2.1167
2.15844
0.968835
0.978995
0.989289
0.999776
1.01048
1.02141
1.03259
1.04401
1.05569
1.06764
1.07986
1.09236
1.10515
1.11824
1.13165
1.14538
1.15945
1.17387
1.18864
1.2038
1.21934
1.23528
1.25165
1.26846
1.28573
1.30347
1.32171
1.34046
1.35975
1.37961
1.40006
1.42113
1.44284
1.46521
1.48829
1.51211
1.5367
1.5621
1.58835
1.61549
1.64356
1.67262
1.70272
1.73391
1.76625
1.7998
1.83464
1.87094
1.90916
0.893706
0.902781
0.912134
0.921728
0.931546
0.941589
0.951861
0.96237
0.973121
0.984119
0.995369
1.00688
1.01866
1.03073
1.04308
1.05573
1.06869
1.08198
1.0956
1.10956
1.12389
1.13858
1.15367
1.16916
1.18508
1.20143
1.21824
1.23553
1.25331
1.27161
1.29046
1.30988
1.32989
1.35052
1.37179
1.39374
1.41641
1.43982
1.46401
1.48903
1.51492
1.54171
1.56947
1.59825
1.62809
1.65907
1.69124
1.72463
1.75909
0.784559
0.79267
0.80093
0.809359
0.817972
0.826777
0.835783
0.844997
0.854423
0.864066
0.873933
0.884031
0.894369
0.904954
0.915794
0.926897
0.938274
0.949935
0.961891
0.974151
0.986725
0.999627
1.01287
1.02647
1.04044
1.0548
1.06956
1.08474
1.10035
1.11642
1.13297
1.15002
1.16759
1.1857
1.20437
1.22365
1.24355
1.26411
1.28536
1.30733
1.33006
1.3536
1.37799
1.40328
1.42952
1.45678
1.48513
1.51469
1.5458
0.691487
0.698552
0.705781
0.713179
0.720749
0.728494
0.736418
0.744522
0.752813
0.761298
0.769983
0.778872
0.787973
0.797291
0.806836
0.816614
0.826633
0.836904
0.847434
0.858233
0.86931
0.880676
0.892343
0.904325
0.916635
0.929284
0.942287
0.955658
0.969414
0.983573
0.998154
1.01317
1.02865
1.04461
1.06107
1.07805
1.09559
1.1137
1.13243
1.15179
1.17183
1.19258
1.21409
1.2364
1.25955
1.28361
1.30862
1.33462
1.36153
0.595171
0.60124
0.607452
0.613814
0.62032
0.626977
0.633786
0.640748
0.647873
0.655168
0.662635
0.670278
0.678103
0.686117
0.694326
0.702735
0.711354
0.720188
0.729247
0.738538
0.748068
0.757847
0.767886
0.778195
0.788787
0.799672
0.810862
0.822369
0.834207
0.846393
0.858941
0.871868
0.885188
0.898921
0.913085
0.927703
0.942796
0.95839
0.974508
0.991179
1.00843
1.02631
1.04483
1.06405
1.08401
1.10475
1.12634
1.14887
1.17253
0.490887
0.495939
0.501083
0.506335
0.511699
0.517182
0.522787
0.528522
0.534394
0.540405
0.546558
0.552855
0.559304
0.565909
0.572676
0.579608
0.586712
0.593996
0.601465
0.609125
0.616983
0.625047
0.633325
0.641827
0.650562
0.65954
0.668769
0.678259
0.688023
0.698073
0.708423
0.719085
0.730072
0.741399
0.753083
0.765141
0.777593
0.790457
0.803756
0.817512
0.831752
0.846504
0.861799
0.87767
0.894155
0.911295
0.929131
0.947692
0.96693
0.401059
0.405082
0.409235
0.413495
0.417858
0.422322
0.42689
0.431569
0.43636
0.441263
0.446282
0.451421
0.456684
0.462075
0.467597
0.473255
0.479054
0.484999
0.491096
0.497349
0.503763
0.510345
0.517102
0.524043
0.531174
0.538503
0.546037
0.553784
0.561756
0.569961
0.578411
0.587116
0.596087
0.605335
0.614875
0.624721
0.634889
0.645395
0.656257
0.667493
0.679126
0.691179
0.703679
0.716652
0.730132
0.744154
0.758762
0.77401
0.790027
0.29254
0.295579
0.29864
0.301751
0.304928
0.308178
0.311507
0.314918
0.318409
0.321981
0.32564
0.329387
0.333226
0.337157
0.341185
0.345312
0.349542
0.353879
0.358326
0.362888
0.367567
0.372368
0.377298
0.382361
0.387562
0.392908
0.398404
0.404056
0.40987
0.415856
0.422021
0.428372
0.434917
0.441664
0.448625
0.45581
0.463229
0.470897
0.478824
0.487027
0.49552
0.504321
0.513449
0.522928
0.53278
0.543035
0.55372
0.564864
0.576445
0.202696
0.204615
0.206642
0.208753
0.210929
0.213168
0.215467
0.217821
0.220231
0.2227
0.22523
0.227821
0.230476
0.233195
0.235981
0.238836
0.241762
0.244762
0.247838
0.250992
0.254229
0.25755
0.260959
0.26446
0.268058
0.271754
0.275555
0.279463
0.283484
0.287623
0.291886
0.296278
0.300804
0.305471
0.310286
0.315255
0.320388
0.325692
0.331177
0.336852
0.342728
0.348818
0.355136
0.361697
0.368519
0.375625
0.383045
0.390835
0.399115
0.0969926
0.0979994
0.0990049
0.100031
0.10108
0.102156
0.103256
0.10438
0.105532
0.106715
0.107927
0.109168
0.110438
0.111741
0.113075
0.114444
0.115846
0.117284
0.118758
0.12027
0.121821
0.123413
0.125047
0.126724
0.128448
0.130219
0.13204
0.133912
0.135839
0.137822
0.139864
0.141968
0.144137
0.146373
0.14868
0.151062
0.153522
0.156064
0.158693
0.161414
0.164231
0.167151
0.170181
0.173328
0.176602
0.180012
0.183575
0.187304
0.191198
-2.17224e-06
-4.35138e-06
-2.0068e-06
4.99428e-07
3.78453e-06
5.10507e-06
2.79214e-06
1.07231e-06
1.46134e-06
2.4976e-06
2.677e-06
1.92286e-06
1.18165e-06
1.13822e-06
1.63854e-06
2.14229e-06
2.44768e-06
2.76411e-06
3.3044e-06
4.07157e-06
4.86435e-06
5.4457e-06
5.69889e-06
5.68231e-06
5.48647e-06
5.15456e-06
4.69889e-06
4.11221e-06
3.41533e-06
2.70421e-06
2.07066e-06
1.64007e-06
1.44104e-06
1.37941e-06
1.49059e-06
1.69911e-06
1.98857e-06
2.40821e-06
2.86402e-06
3.28245e-06
3.67576e-06
4.15245e-06
4.44605e-06
4.39827e-06
4.43324e-06
4.02448e-06
4.77561e-06
3.43077e-06
2.58851e-06
-0.0969935
-0.0980016
-0.0990062
-0.100029
-0.101075
-0.10215
-0.103251
-0.104376
-0.105528
-0.106709
-0.107921
-0.109162
-0.110433
-0.111735
-0.113069
-0.114437
-0.115838
-0.117275
-0.118749
-0.12026
-0.121811
-0.123403
-0.125037
-0.126715
-0.128439
-0.130211
-0.132033
-0.133906
-0.135834
-0.137818
-0.139862
-0.141967
-0.144137
-0.146374
-0.148681
-0.151063
-0.153522
-0.156064
-0.158693
-0.161412
-0.164228
-0.167148
-0.170177
-0.173324
-0.176598
-0.180009
-0.183572
-0.187303
-0.191198
-0.202688
-0.204603
-0.206633
-0.208745
-0.210926
-0.213166
-0.21546
-0.21781
-0.22022
-0.222689
-0.225219
-0.227809
-0.230462
-0.23318
-0.235965
-0.23882
-0.241746
-0.244745
-0.247821
-0.250976
-0.254213
-0.257535
-0.260945
-0.264447
-0.268045
-0.271743
-0.275545
-0.279454
-0.283477
-0.287618
-0.291882
-0.296275
-0.300802
-0.30547
-0.310284
-0.315254
-0.320387
-0.32569
-0.331175
-0.336849
-0.342725
-0.348815
-0.355133
-0.361693
-0.368515
-0.375621
-0.383043
-0.390831
-0.399111
-0.292538
-0.295572
-0.298634
-0.301749
-0.304931
-0.308181
-0.311508
-0.314914
-0.318404
-0.321978
-0.325636
-0.329382
-0.333218
-0.337149
-0.341177
-0.345304
-0.349534
-0.353871
-0.358318
-0.36288
-0.36756
-0.372363
-0.377293
-0.382356
-0.387559
-0.392905
-0.398402
-0.404054
-0.409869
-0.415856
-0.42202
-0.428371
-0.434916
-0.441664
-0.448626
-0.455811
-0.463231
-0.470898
-0.478826
-0.487029
-0.495522
-0.504323
-0.513452
-0.52293
-0.532782
-0.543037
-0.553723
-0.564866
-0.576446
-0.401062
-0.405086
-0.409238
-0.413498
-0.417859
-0.422323
-0.426894
-0.431573
-0.436363
-0.441266
-0.446285
-0.451424
-0.456687
-0.462078
-0.467601
-0.473259
-0.479059
-0.485004
-0.491101
-0.497355
-0.50377
-0.510352
-0.51711
-0.52405
-0.531181
-0.538509
-0.546042
-0.553788
-0.561758
-0.569962
-0.57841
-0.587114
-0.596084
-0.605332
-0.614871
-0.624717
-0.634885
-0.645391
-0.656253
-0.66749
-0.679124
-0.691177
-0.703676
-0.71665
-0.73013
-0.744152
-0.758757
-0.774006
-0.790023
-0.490893
-0.495951
-0.501094
-0.506341
-0.511701
-0.517184
-0.522794
-0.528533
-0.534406
-0.540416
-0.546569
-0.552869
-0.55932
-0.565926
-0.572693
-0.579627
-0.586732
-0.594017
-0.601486
-0.609147
-0.617005
-0.625068
-0.633346
-0.641847
-0.65058
-0.659556
-0.668782
-0.67827
-0.688032
-0.69808
-0.708428
-0.719088
-0.730073
-0.7414
-0.753083
-0.765141
-0.777592
-0.790456
-0.803755
-0.817512
-0.831753
-0.846505
-0.8618
-0.877672
-0.894157
-0.911297
-0.929131
-0.947693
-0.96693
-0.595166
-0.601237
-0.607451
-0.613811
-0.620319
-0.626976
-0.633786
-0.640751
-0.64788
-0.655176
-0.662644
-0.670288
-0.678114
-0.68613
-0.694339
-0.70275
-0.711369
-0.720205
-0.729264
-0.738554
-0.748083
-0.757862
-0.767899
-0.778208
-0.788798
-0.799682
-0.810869
-0.822374
-0.83421
-0.846394
-0.858941
-0.871865
-0.885185
-0.898916
-0.91308
-0.927698
-0.942791
-0.958385
-0.974504
-0.991175
-1.00843
-1.0263
-1.04483
-1.06405
-1.08401
-1.10475
-1.12634
-1.14887
-1.17253
-0.691482
-0.698542
-0.705774
-0.713177
-0.720751
-0.728497
-0.736418
-0.744521
-0.752814
-0.761301
-0.769987
-0.778876
-0.787976
-0.797296
-0.806841
-0.816619
-0.826639
-0.836909
-0.847439
-0.858237
-0.869313
-0.880678
-0.892345
-0.904326
-0.916634
-0.929283
-0.942285
-0.955655
-0.96941
-0.983569
-0.998149
-1.01317
-1.02865
-1.0446
-1.06106
-1.07804
-1.09558
-1.1137
-1.13242
-1.15179
-1.17183
-1.19258
-1.21409
-1.23639
-1.25955
-1.28361
-1.30862
-1.33462
-1.36153
-0.784559
-0.792667
-0.800926
-0.809358
-0.817973
-0.826778
-0.835782
-0.844994
-0.854418
-0.864061
-0.873928
-0.884025
-0.894361
-0.904946
-0.915785
-0.926888
-0.938264
-0.949924
-0.961878
-0.974137
-0.986711
-0.999613
-1.01286
-1.02646
-1.04043
-1.05479
-1.06954
-1.08472
-1.10033
-1.11641
-1.13296
-1.15
-1.16757
-1.18568
-1.20436
-1.22363
-1.24354
-1.26409
-1.28534
-1.30731
-1.33005
-1.35359
-1.37798
-1.40327
-1.42951
-1.45677
-1.48512
-1.51469
-1.54579
-0.89371
-0.902785
-0.912135
-0.921727
-0.931544
-0.941586
-0.951859
-0.962367
-0.973116
-0.984111
-0.995361
-1.00687
-1.01865
-1.03072
-1.04307
-1.05572
-1.06868
-1.08196
-1.09558
-1.10955
-1.12387
-1.13857
-1.15365
-1.16914
-1.18506
-1.20141
-1.21822
-1.23551
-1.25329
-1.2716
-1.29045
-1.30986
-1.32987
-1.3505
-1.37177
-1.39373
-1.41639
-1.4398
-1.464
-1.48902
-1.5149
-1.5417
-1.56946
-1.59824
-1.62808
-1.65906
-1.69123
-1.72463
-1.75908
-0.968833
-0.978995
-0.989288
-0.999772
-1.01047
-1.02141
-1.03258
-1.044
-1.05568
-1.06763
-1.07985
-1.09235
-1.10514
-1.11823
-1.13164
-1.14537
-1.15943
-1.17385
-1.18863
-1.20378
-1.21932
-1.23526
-1.25163
-1.26844
-1.28571
-1.30345
-1.32169
-1.34044
-1.35974
-1.3796
-1.40005
-1.42112
-1.44282
-1.4652
-1.48828
-1.5121
-1.53668
-1.56208
-1.58833
-1.61547
-1.64355
-1.67261
-1.70271
-1.7339
-1.76624
-1.79979
-1.83463
-1.87094
-1.90915
-1.09682
-1.10795
-1.11947
-1.1313
-1.14342
-1.15582
-1.16849
-1.18144
-1.19468
-1.20821
-1.22206
-1.23621
-1.2507
-1.26552
-1.2807
-1.29624
-1.31216
-1.32848
-1.34521
-1.36236
-1.37995
-1.39799
-1.41652
-1.43554
-1.45508
-1.47516
-1.4958
-1.51703
-1.53886
-1.56134
-1.58448
-1.60833
-1.63289
-1.65822
-1.68434
-1.71129
-1.73912
-1.76787
-1.79757
-1.82829
-1.86006
-1.89294
-1.927
-1.96228
-1.99884
-2.03674
-2.07603
-2.11669
-2.15844
-1.14764
-1.15992
-1.17229
-1.18486
-1.19765
-1.2107
-1.22402
-1.23762
-1.25151
-1.26571
-1.28023
-1.29507
-1.31025
-1.32579
-1.34169
-1.35798
-1.37466
-1.39175
-1.40928
-1.42725
-1.44567
-1.46458
-1.48398
-1.50391
-1.52438
-1.54542
-1.56705
-1.58928
-1.61216
-1.6357
-1.65995
-1.68493
-1.71067
-1.7372
-1.76456
-1.7928
-1.82196
-1.85208
-1.8832
-1.91538
-1.94866
-1.98312
-2.01879
-2.05575
-2.09403
-2.1337
-2.17482
-2.21752
-2.26237
-1.3
-1.31333
-1.32716
-1.34135
-1.35585
-1.37065
-1.38574
-1.40116
-1.4169
-1.43298
-1.44941
-1.46622
-1.48341
-1.501
-1.519
-1.53744
-1.55632
-1.57568
-1.59551
-1.61585
-1.63672
-1.65812
-1.68009
-1.70265
-1.72582
-1.74964
-1.77412
-1.7993
-1.82519
-1.85185
-1.8793
-1.90758
-1.93672
-1.96676
-1.99774
-2.02972
-2.06273
-2.09683
-2.13207
-2.16851
-2.20621
-2.24524
-2.28565
-2.32751
-2.37088
-2.41581
-2.46228
-2.51017
-2.5588
-1.32081
-1.33555
-1.35016
-1.36486
-1.37973
-1.39485
-1.41025
-1.42594
-1.44197
-1.45833
-1.47506
-1.49215
-1.50964
-1.52754
-1.54586
-1.56462
-1.58383
-1.60352
-1.62371
-1.64441
-1.66564
-1.68742
-1.70977
-1.73273
-1.75631
-1.78055
-1.80546
-1.83108
-1.85744
-1.88456
-1.9125
-1.94128
-1.97093
-2.00151
-2.03304
-2.06558
-2.09918
-2.13389
-2.16976
-2.20686
-2.24524
-2.28498
-2.32614
-2.36879
-2.413
-2.45882
-2.50629
-2.55548
-2.60665
-1.50094
-1.51638
-1.53238
-1.54877
-1.56551
-1.58258
-1.59999
-1.61775
-1.63589
-1.65443
-1.67338
-1.69276
-1.71259
-1.73288
-1.75365
-1.77492
-1.79671
-1.81904
-1.84194
-1.86541
-1.88949
-1.9142
-1.93956
-1.9656
-1.99235
-2.01984
-2.0481
-2.07716
-2.10706
-2.13783
-2.16952
-2.20217
-2.23581
-2.27049
-2.30627
-2.34319
-2.38131
-2.42069
-2.46139
-2.50349
-2.54705
-2.59216
-2.63891
-2.68737
-2.73765
-2.78983
-2.84397
-2.90007
-2.95792
-1.50064
-1.51708
-1.53343
-1.54992
-1.56664
-1.58366
-1.60101
-1.61873
-1.63683
-1.65534
-1.67427
-1.69363
-1.71345
-1.73373
-1.7545
-1.77577
-1.79756
-1.8199
-1.8428
-1.86628
-1.89037
-1.91508
-1.94045
-1.9665
-1.99327
-2.02077
-2.04904
-2.07812
-2.10803
-2.13881
-2.17052
-2.20318
-2.23684
-2.27154
-2.30733
-2.34427
-2.38241
-2.42181
-2.46254
-2.50467
-2.54827
-2.59344
-2.64025
-2.68882
-2.73925
-2.79167
-2.84622
-2.90298
-2.96167
-1.68743
-1.70469
-1.72235
-1.74042
-1.75892
-1.77783
-1.79719
-1.81698
-1.83724
-1.85796
-1.87917
-1.90087
-1.92309
-1.94584
-1.96913
-1.993
-2.01745
-2.04251
-2.06821
-2.09456
-2.12159
-2.14932
-2.17779
-2.20703
-2.23707
-2.26794
-2.29967
-2.33229
-2.36586
-2.40042
-2.436
-2.47266
-2.51043
-2.54937
-2.58954
-2.631
-2.67381
-2.71803
-2.76375
-2.81103
-2.85998
-2.91068
-2.96325
-3.0178
-3.07449
-3.13351
-3.19515
-3.26003
-3.32987
-1.703
-1.71923
-1.73639
-1.75423
-1.77263
-1.79154
-1.81093
-1.8308
-1.85115
-1.87199
-1.89332
-1.91516
-1.93753
-1.96043
-1.98389
-2.00793
-2.03255
-2.0578
-2.08368
-2.11023
-2.13746
-2.1654
-2.19408
-2.22353
-2.25379
-2.28489
-2.31685
-2.34973
-2.38355
-2.41836
-2.45421
-2.49114
-2.52919
-2.56843
-2.6089
-2.65066
-2.69379
-2.73834
-2.7844
-2.83204
-2.88135
-2.93243
-2.9854
-3.04036
-3.09746
-3.15689
-3.21883
-3.28339
-3.35001
-1.84995
-1.86942
-1.8889
-1.90866
-1.92882
-1.94945
-1.97056
-1.99218
-2.01432
-2.03699
-2.0602
-2.08396
-2.10829
-2.13321
-2.15873
-2.18488
-2.21168
-2.23915
-2.26731
-2.2962
-2.32582
-2.35622
-2.38743
-2.41948
-2.45241
-2.48624
-2.52103
-2.55679
-2.59359
-2.63147
-2.67048
-2.71066
-2.75207
-2.79476
-2.83879
-2.88424
-2.93116
-2.97964
-3.02975
-3.08157
-3.13521
-3.19077
-3.24836
-3.3081
-3.37015
-3.43466
-3.50187
-3.57221
-3.64698
-1.90293
-1.92131
-1.94068
-1.96075
-1.98139
-2.00258
-2.02428
-2.0465
-2.06926
-2.09256
-2.11641
-2.14082
-2.16582
-2.19142
-2.21765
-2.24451
-2.27204
-2.30026
-2.32919
-2.35886
-2.3893
-2.42053
-2.45259
-2.48551
-2.51933
-2.55409
-2.58983
-2.62657
-2.66437
-2.70328
-2.74335
-2.78463
-2.82717
-2.87102
-2.91626
-2.96294
-3.01113
-3.06093
-3.1124
-3.16562
-3.22071
-3.27775
-3.33686
-3.39815
-3.46174
-3.52777
-3.59634
-3.66737
-3.73985
-2.0054
-2.02692
-2.04833
-2.06998
-2.09203
-2.11454
-2.13755
-2.16108
-2.18516
-2.2098
-2.23501
-2.26082
-2.28723
-2.31428
-2.34199
-2.37037
-2.39944
-2.42925
-2.45981
-2.49115
-2.52329
-2.55627
-2.59013
-2.6249
-2.66062
-2.69733
-2.73506
-2.77386
-2.81379
-2.85488
-2.8972
-2.94079
-2.98571
-3.03202
-3.07978
-3.12908
-3.17997
-3.23255
-3.2869
-3.34309
-3.40124
-3.46144
-3.52381
-3.58845
-3.65548
-3.72502
-3.79724
-3.87252
-3.95231
-2.09908
-2.11954
-2.14114
-2.16353
-2.18653
-2.2101
-2.23421
-2.25887
-2.28409
-2.30989
-2.33628
-2.36328
-2.39092
-2.41921
-2.44818
-2.47786
-2.50826
-2.53942
-2.57137
-2.60413
-2.63774
-2.67222
-2.70761
-2.74396
-2.7813
-2.81967
-2.85912
-2.89968
-2.94141
-2.98437
-3.0286
-3.07417
-3.12113
-3.16953
-3.21946
-3.27099
-3.32419
-3.37915
-3.43595
-3.49468
-3.55545
-3.61835
-3.68351
-3.75101
-3.82096
-3.89345
-3.96849
-4.04588
-4.1243
-2.15454
-2.17816
-2.20159
-2.22523
-2.24923
-2.27367
-2.29861
-2.32407
-2.35009
-2.37668
-2.40387
-2.43168
-2.46014
-2.48927
-2.51909
-2.54963
-2.58092
-2.61299
-2.64587
-2.67958
-2.71416
-2.74964
-2.78606
-2.82346
-2.86189
-2.90137
-2.94196
-2.9837
-3.02664
-3.07084
-3.11635
-3.16324
-3.21155
-3.26136
-3.31274
-3.36576
-3.4205
-3.47704
-3.53548
-3.59591
-3.65843
-3.72315
-3.79018
-3.85962
-3.93157
-4.00612
-4.08336
-4.16357
-4.24815
-2.29035
-2.31322
-2.33732
-2.36219
-2.38766
-2.41366
-2.44019
-2.46727
-2.49493
-2.5232
-2.55209
-2.58163
-2.61185
-2.64279
-2.67446
-2.70689
-2.74011
-2.77416
-2.80907
-2.84487
-2.88158
-2.91925
-2.95792
-2.99762
-3.03842
-3.08034
-3.12343
-3.16774
-3.21333
-3.26026
-3.30858
-3.35836
-3.40965
-3.46253
-3.51708
-3.57336
-3.63148
-3.69151
-3.75355
-3.81771
-3.88409
-3.95282
-4.024
-4.09776
-4.17421
-4.25341
-4.33533
-4.41948
-4.50371
-2.29731
-2.32393
-2.34982
-2.37558
-2.40153
-2.42784
-2.4546
-2.48187
-2.50971
-2.53815
-2.56721
-2.59693
-2.62734
-2.65845
-2.69031
-2.72294
-2.75636
-2.79061
-2.82573
-2.86174
-2.89867
-2.93656
-2.97546
-3.0154
-3.05644
-3.09861
-3.14195
-3.18653
-3.23239
-3.27959
-3.3282
-3.37827
-3.42987
-3.48306
-3.53793
-3.59455
-3.65301
-3.7134
-3.77581
-3.84036
-3.90714
-3.9763
-4.04795
-4.12222
-4.19928
-4.27928
-4.36239
-4.44888
-4.53938
-2.47011
-2.4956
-2.52183
-2.54868
-2.57608
-2.60405
-2.6326
-2.66176
-2.69156
-2.72201
-2.75315
-2.785
-2.8176
-2.85096
-2.88512
-2.9201
-2.95594
-2.99267
-3.03033
-3.06894
-3.10855
-3.14918
-3.1909
-3.23373
-3.27774
-3.32297
-3.36945
-3.41725
-3.46643
-3.51705
-3.56918
-3.62288
-3.67821
-3.73526
-3.79409
-3.85481
-3.9175
-3.98227
-4.04921
-4.11843
-4.19007
-4.26425
-4.34113
-4.42088
-4.50367
-4.58977
-4.67953
-4.77366
-4.87394
-2.4746
-2.49915
-2.52474
-2.55114
-2.57825
-2.60601
-2.63442
-2.66348
-2.69322
-2.72363
-2.75475
-2.7866
-2.81919
-2.85255
-2.88672
-2.92171
-2.95757
-2.99432
-3.032
-3.07063
-3.11026
-3.15092
-3.19265
-3.23551
-3.27954
-3.32479
-3.3713
-3.41913
-3.46834
-3.51899
-3.57114
-3.62487
-3.68023
-3.73731
-3.79618
-3.85693
-3.91965
-3.98445
-4.05143
-4.12069
-4.19237
-4.26661
-4.34355
-4.42336
-4.50625
-4.59245
-4.68222
-4.77572
-4.87206
-2.61753
-2.64535
-2.67313
-2.70129
-2.72999
-2.75933
-2.78934
-2.82005
-2.85148
-2.88364
-2.91656
-2.95025
-2.98473
-3.02005
-3.05621
-3.09326
-3.13121
-3.17012
-3.21001
-3.25091
-3.29286
-3.3359
-3.38009
-3.42547
-3.47208
-3.51999
-3.56923
-3.61987
-3.67196
-3.72558
-3.7808
-3.83768
-3.8963
-3.95672
-4.01905
-4.08336
-4.14977
-4.21837
-4.28928
-4.3626
-4.43849
-4.51707
-4.59851
-4.68298
-4.77068
-4.86187
-4.95692
-5.05662
-5.16346
-2.65867
-2.68374
-2.71051
-2.73843
-2.76725
-2.79684
-2.82718
-2.85827
-2.89009
-2.92267
-2.95602
-2.99016
-3.02511
-3.06089
-3.09755
-3.13509
-3.17356
-3.21299
-3.25342
-3.29487
-3.33739
-3.38102
-3.4258
-3.47179
-3.51904
-3.56759
-3.6175
-3.66882
-3.72162
-3.77597
-3.83193
-3.88958
-3.94899
-4.01023
-4.07339
-4.13858
-4.20588
-4.27541
-4.34727
-4.42158
-4.49847
-4.57809
-4.66059
-4.74612
-4.83487
-4.92699
-5.02264
-5.12161
-5.22209
-2.74909
-2.77886
-2.80829
-2.83799
-2.8682
-2.89905
-2.9306
-2.96287
-2.9959
-3.0297
-3.06428
-3.09968
-3.13592
-3.17302
-3.21102
-3.24994
-3.28983
-3.3307
-3.37261
-3.41558
-3.45966
-3.50489
-3.55131
-3.59899
-3.64797
-3.6983
-3.75004
-3.80324
-3.85797
-3.91431
-3.97232
-4.03208
-4.09366
-4.15715
-4.22263
-4.2902
-4.35997
-4.43204
-4.50652
-4.58355
-4.66324
-4.74576
-4.83123
-4.91981
-5.01166
-5.10696
-5.20591
-5.30908
-5.41871
-2.83413
-2.86128
-2.8902
-2.92028
-2.95126
-2.98302
-3.01553
-3.0488
-3.08284
-3.11766
-3.15328
-3.18973
-3.22704
-3.26524
-3.30435
-3.34441
-3.38546
-3.42753
-3.47066
-3.51488
-3.56024
-3.60679
-3.65456
-3.70362
-3.75402
-3.80582
-3.85906
-3.91381
-3.97013
-4.02811
-4.08781
-4.14931
-4.21268
-4.27801
-4.34539
-4.41493
-4.48672
-4.56088
-4.63753
-4.71679
-4.7988
-4.88369
-4.97162
-5.06272
-5.15713
-5.25496
-5.35618
-5.46041
-5.56541
-2.8738
-2.90553
-2.93684
-2.96836
-3.00035
-3.03293
-3.06618
-3.10013
-3.13483
-3.1703
-3.20656
-3.24366
-3.28162
-3.32048
-3.36027
-3.40102
-3.44276
-3.48555
-3.52941
-3.57438
-3.62052
-3.66785
-3.71643
-3.76632
-3.81758
-3.87025
-3.92439
-3.98007
-4.03735
-4.0963
-4.15702
-4.21955
-4.284
-4.35044
-4.41896
-4.48967
-4.56268
-4.6381
-4.71605
-4.79665
-4.88005
-4.96638
-5.05581
-5.14846
-5.24449
-5.34401
-5.44715
-5.55427
-5.66744
-3.00029
-3.02987
-3.06126
-3.09375
-3.12706
-3.16109
-3.19582
-3.23128
-3.26751
-3.30452
-3.34236
-3.38105
-3.42063
-3.46115
-3.50263
-3.5451
-3.58862
-3.63322
-3.67894
-3.72583
-3.77391
-3.82325
-3.87389
-3.9259
-3.97933
-4.03423
-4.09067
-4.1487
-4.20841
-4.26986
-4.33314
-4.39833
-4.46551
-4.53476
-4.60619
-4.6799
-4.756
-4.83462
-4.91588
-4.9999
-5.08684
-5.17686
-5.27012
-5.36678
-5.467
-5.57089
-5.67841
-5.78891
-5.89921
-2.9918
-3.02668
-3.06054
-3.09418
-3.12804
-3.16233
-3.1972
-3.23273
-3.269
-3.30604
-3.3439
-3.38261
-3.42221
-3.46274
-3.50424
-3.54674
-3.59028
-3.6349
-3.68064
-3.72755
-3.77566
-3.82502
-3.87568
-3.92771
-3.98117
-4.03609
-4.09256
-4.15062
-4.21035
-4.27183
-4.33514
-4.40036
-4.46757
-4.53685
-4.60832
-4.68206
-4.7582
-4.83686
-4.91816
-5.00223
-5.08923
-5.17933
-5.27269
-5.3695
-5.47
-5.57443
-5.68314
-5.79668
-5.91616
3.14783
3.18146
3.21542
3.24986
3.28489