/*--------------------------------*- C++ -*----------------------------------*\
  =========                 |
  \\      /  F ield         | OpenFOAM: The Open Source CFD Toolbox
   \\    /   O peration     | Website:  https://openfoam.org
    \\  /    A nd           | Version:  6
     \\/     M anipulation  |
\*---------------------------------------------------------------------------*/
FoamFile
{
    version     2.0;
    format      ascii;
    class       volScalarField;
    location    "120";
    object      gradTz;
}
// * * * * * * * * * * * * * * * * * * * * * * * * * * * * * * * * * * * * * //

dimensions      [0 -1 0 1 0 0 0];

internalField   nonuniform List<scalar> 
13524
(
0
-1.74484e-17
0
2.10201e-17
0
-6.82683e-17
-2.18166e-16
1.79107e-16
-2.90874e-16
4.41153e-16
-4.10761e-16
-3.30379e-16
6.11154e-16
-3.68495e-16
-6.45096e-16
-1.4632e-16
4.78559e-16
-1.33678e-16
-2.87902e-16
-1.54621e-16
0
5.5013e-16
-3.39583e-16
-9.87027e-16
-4.28243e-16
-2.27427e-16
-1.4689e-15
7.44878e-16
2.70516e-16
0
-3.02202e-16
-3.18999e-16
0
3.54827e-16
3.73879e-16
1.19537e-15
-8.1465e-16
8.87469e-16
-1.3612e-15
0
0
0
-5.60538e-16
3.53533e-20
0
3.57309e-20
0
7.18345e-16
7.77621e-16
4.89653e-17
6.44962e-17
-7.97976e-17
0
1.50131e-16
-5.56571e-17
2.59362e-16
-3.85271e-16
2.63757e-16
6.30165e-17
1.41701e-16
7.89484e-17
0
9.59647e-17
1.04898e-16
2.28339e-16
0
2.67374e-16
1.43963e-16
-3.27234e-16
8.10392e-16
9.04579e-16
-1.13456e-15
9.87236e-16
-4.48799e-16
8.89166e-16
2.41237e-16
-1.0447e-15
1.05976e-15
8.81774e-16
-1.1973e-15
1.27648e-15
-9.97125e-16
1.33291e-17
-1.4959e-15
-1.38211e-17
0
-1.75997e-15
9.02459e-16
0
-5.07374e-16
0
-2.49669e-20
-1.17818e-15
0
-6.5049e-16
0
-7.18345e-16
-8.11188e-21
4.31584e-17
-5.52302e-17
-1.47958e-17
0
-2.74982e-17
-6.83189e-17
-4.1029e-17
2.05939e-16
-2.8132e-17
-2.38226e-16
-7.0856e-17
-7.89458e-17
0
-9.59616e-17
0
-1.14174e-16
-1.23773e-16
-1.33691e-16
0
-1.54633e-16
-8.46752e-16
6.89975e-16
-1.89017e-16
-8.25255e-16
-4.68823e-16
1.11654e-15
0
-2.55615e-16
-2.70528e-16
2.86054e-16
-9.18752e-16
6.25811e-16
-3.49436e-16
1.77442e-15
-1.10822e-15
-4.07911e-16
-2.89383e-17
1.2938e-15
4.5886e-16
0
1.5388e-15
-1.0497e-15
1.69959e-15
-5.70865e-16
0
0
1.38799e-15
-1.41547e-15
2.2875e-15
0
0
8.61378e-17
-7.20909e-17
2.75077e-17
-1.15433e-16
1.51233e-16
2.54205e-16
8.2797e-17
-2.38357e-16
7.08714e-17
0
8.7327e-17
0
-4.3559e-16
5.55063e-16
-3.88011e-16
6.51856e-16
0
0
1.65701e-16
0
1.89039e-16
-2.0137e-16
-6.63016e-16
1.11674e-15
-2.41274e-16
-5.08046e-21
0
2.86081e-16
-3.14401e-16
9.44982e-16
0
-3.54867e-16
-3.73921e-16
3.93801e-16
4.29216e-16
-8.57718e-16
-4.58895e-16
-1.46399e-15
2.53743e-15
-1.04983e-15
-1.69977e-15
1.74921e-15
6.19076e-16
0
6.83595e-16
7.18374e-16
-7.54986e-16
0
0
-1.48011e-17
9.65178e-17
-1.25057e-16
1.495e-16
-1.51134e-16
-2.54101e-16
1.52797e-16
2.66199e-16
-3.4011e-16
0
2.77009e-16
-3.68644e-16
0
-5.87097e-16
9.90377e-16
-6.51726e-16
-5.9337e-16
4.46283e-16
5.15408e-16
-8.67154e-16
5.86409e-16
-5.84488e-16
0
-1.15823e-15
1.18505e-15
2.55618e-16
0
-2.86069e-16
-3.02229e-16
-3.19055e-16
0
3.54853e-16
-7.6149e-16
3.79892e-16
1.25821e-15
-8.57615e-16
4.58877e-16
4.82575e-16
-5.07375e-16
0
1.69962e-15
-1.74907e-15
-6.19052e-16
6.70575e-16
-6.42306e-16
-2.13382e-15
7.54956e-16
0
0
7.13255e-17
-7.20803e-17
0
3.41592e-17
-1.77363e-16
1.79322e-16
-2.35677e-16
2.3834e-16
-2.97919e-16
3.01363e-16
8.7317e-17
0
0
0
-3.87997e-16
-1.67477e-16
1.09352e-16
1.1913e-16
6.44773e-16
1.08182e-15
-5.48133e-16
1.02677e-15
-6.22482e-16
0
0
2.55616e-16
2.70541e-16
-2.86068e-16
0
9.69706e-16
-3.24003e-16
-7.23045e-16
7.20679e-16
7.73761e-16
4.14541e-16
8.87608e-16
-9.02526e-16
4.82579e-16
5.07379e-16
0
1.13917e-15
-5.70963e-16
-1.25753e-15
1.93202e-15
0
-7.40144e-16
3.02056e-15
-2.85726e-18
8.73091e-18
-7.122e-17
7.19737e-17
0
-6.8306e-17
4.10204e-17
0
0
-2.66145e-16
1.9834e-16
0
-1.36257e-20
0
-1.04902e-16
4.72852e-16
-9.08145e-17
-9.36005e-16
5.58664e-16
-6.3639e-16
1.29228e-16
1.24015e-15
-9.26006e-16
-2.01353e-16
6.6282e-16
-6.6164e-16
9.86546e-16
4.40235e-17
-1.33014e-15
1.15596e-15
-5.92504e-16
-3.19046e-16
3.49414e-16
-6.96625e-16
-1.86992e-20
0
-1.93009e-20
-4.3619e-16
0
-4.82567e-16
5.24059e-16
-1.60033e-15
5.42967e-16
-5.89094e-16
-1.2574e-15
1.28135e-15
1.38798e-15
-2.13381e-15
0
2.85732e-18
-7.81756e-22
7.12618e-17
-7.20159e-17
0
3.41483e-17
-4.10213e-17
-2.0595e-16
2.08252e-16
0
3.68661e-16
-3.01256e-16
-4.51619e-16
3.68627e-16
1.04905e-16
0
1.23749e-16
5.51784e-16
-1.29605e-15
6.00916e-16
-8.46767e-16
1.41739e-15
-1.51247e-15
7.85842e-16
0
7.03334e-16
-1.68915e-15
7.45e-16
-5.52494e-16
2.7451e-16
0
-3.19027e-16
0
0
-1.13539e-15
1.57539e-15
-1.22926e-15
9.11492e-21
0
4.82548e-16
-1.03147e-15
1.04972e-15
1.12108e-15
0
6.19029e-16
0
6.83554e-16
0
-1.13232e-17
0
-8.73032e-18
-7.12026e-17
1.68414e-16
-9.74891e-17
0
0
0
0
0
0
0
0
3.99199e-16
-4.0398e-16
-4.7281e-16
-1.56702e-16
-3.37773e-17
5.58636e-16
0
0
0
0
0
-8.76931e-16
-4.16445e-17
7.02451e-16
0
5.52444e-16
2.33256e-17
-5.92483e-16
9.69553e-16
-6.60458e-16
7.22914e-16
-1.49574e-15
7.73627e-16
-8.43621e-16
4.06287e-16
9.02384e-16
4.98692e-16
-9.98304e-16
-5.33319e-16
-5.60535e-16
0
-2.49543e-15
-3.97177e-17
6.63152e-16
0
-7.5497e-16
2.01315e-17
-3.19596e-17
-1.47904e-17
2.10408e-17
0
-3.41478e-17
-1.36159e-16
1.3102e-16
0
-6.30208e-17
7.08469e-17
-7.89367e-17
-8.73012e-17
3.99181e-16
-5.08864e-16
-5.86955e-16
3.54838e-16
0
-1.43967e-16
-1.54624e-16
1.65671e-16
-9.04408e-16
1.51223e-15
-1.619e-16
2.54656e-16
-1.85786e-16
-1.4369e-15
1.27808e-15
-1.35272e-15
2.74448e-16
-3.02204e-16
-6.5051e-16
3.23883e-16
3.68068e-16
-3.604e-16
-1.19539e-15
8.14662e-16
-1.32364e-15
1.36122e-15
-4.8255e-16
-5.0735e-16
0
0
6.0767e-16
-1.21914e-15
0
0
7.2919e-16
-7.43921e-16
2.87689e-17
-6.13641e-17
7.68829e-17
-1.17606e-16
1.25097e-16
3.41481e-17
-8.20522e-17
3.02249e-16
-4.43932e-16
3.64345e-16
-7.08475e-17
1.57887e-16
4.51674e-16
-4.6465e-16
5.40418e-16
-3.26627e-16
6.35463e-16
-3.84368e-16
1.43968e-16
7.91122e-16
-9.76068e-16
1.77127e-16
1.89024e-16
1.02668e-15
-8.36556e-16
1.15826e-15
-9.4385e-16
-2.55596e-16
2.70521e-16
2.86047e-16
3.02207e-16
0
-1.29191e-17
1.05153e-15
-3.73884e-16
-4.07975e-16
8.14775e-16
8.72411e-16
4.74542e-16
1.57723e-17
5.07354e-16
0
5.60561e-16
5.89083e-16
1.87652e-15
-6.3093e-16
1.38808e-15
-2.1448e-15
7.43972e-16
-2.8594e-18
0
5.64441e-17
-7.19941e-17
-2.74989e-17
0
4.103e-17
-9.62601e-17
0
-6.30311e-17
0
-7.89471e-17
0
4.95236e-16
-9.44421e-16
4.40725e-16
0
-1.33692e-16
0
0
8.46755e-16
-5.12833e-16
-9.64428e-16
7.85819e-16
-2.14147e-16
0
0
-5.22304e-16
-2.26582e-17
-2.33247e-17
5.92517e-16
0
-3.36567e-16
0
0
8.01678e-16
-8.14713e-16
-4.362e-16
-9.33331e-16
4.66729e-16
0
0
-5.60543e-16
-1.19679e-15
1.83821e-15
-6.5049e-16
0
-7.29192e-16
7.43923e-16
0
-8.73815e-18
7.13218e-17
-1.6867e-16
-2.50421e-17
1.5816e-16
1.36322e-16
-1.31186e-16
-5.54677e-17
-6.30416e-17
0
-7.89587e-17
0
0
-2.99225e-21
0
3.87985e-16
-6.51826e-16
-1.43991e-16
-7.91201e-16
6.44765e-16
-1.77148e-16
5.86518e-16
-9.87326e-16
-4.38574e-16
2.17166e-16
-7.34631e-16
2.4474e-16
0
-5.83949e-16
-2.40218e-17
6.25895e-16
-6.8609e-16
3.41868e-16
0
0
4.14546e-16
0
-1.39232e-15
1.93076e-15
-2.53737e-15
5.16446e-16
1.13916e-15
-2.35697e-15
1.85774e-15
-1.932e-15
0
-7.18362e-16
1.13118e-17
0
1.74749e-17
0
2.10514e-17
0
-3.41633e-17
-9.52053e-17
3.85199e-16
-1.52798e-16
6.30395e-17
0
-2.51566e-16
6.98717e-16
-7.67935e-16
5.08998e-16
0
2.47543e-16
1.33702e-16
7.37349e-16
1.90163e-16
-6.44653e-16
0
3.78052e-16
4.02712e-16
4.38511e-16
2.48271e-16
2.62667e-16
5.33242e-16
-8.00364e-16
0
3.0222e-16
-3.19046e-16
3.36574e-16
3.54847e-16
0
3.93776e-16
-4.14532e-16
4.36208e-16
4.5887e-16
0
1.01473e-15
-5.50653e-16
1.10352e-15
0
0
1.31104e-15
-6.73362e-16
1.44753e-15
1.10277e-17
-2.85958e-18
-8.73734e-18
-1.47975e-17
-2.02661e-21
-2.75014e-17
-1.83727e-16
1.10165e-16
0
2.91121e-16
-3.5089e-17
-3.40173e-16
2.51645e-16
-3.34463e-16
-9.59677e-17
0
-1.1418e-16
-2.47543e-16
0
-7.37432e-16
1.39218e-15
-8.10429e-16
0
-3.78055e-16
-2.0136e-16
-2.14154e-16
2.37985e-16
-7.13199e-16
-2.55617e-16
2.70543e-16
-2.86063e-16
-6.49291e-21
6.58653e-21
-6.73161e-16
-1.07787e-15
7.34406e-16
-7.87567e-16
4.29197e-16
-1.73011e-15
-1.39229e-15
9.49371e-16
5.24148e-16
3.42879e-17
-1.10361e-15
0
-6.28752e-16
-1.98546e-17
1.36745e-15
-7.07784e-16
-7.66283e-16
-2.30102e-17
-2.34998e-17
1.48066e-16
-9.30401e-17
5.49961e-17
6.23605e-21
0
2.54056e-16
-2.63695e-16
6.30338e-17
7.08601e-17
1.57891e-16
0
1.91922e-16
1.04906e-16
-2.4452e-16
6.02435e-16
1.33685e-16
1.4398e-16
6.3639e-16
-6.44602e-16
0
-9.66552e-18
3.92899e-16
-2.2434e-16
2.0662e-16
9.5436e-16
0
2.70518e-16
1.15596e-15
-1.81345e-15
9.44839e-16
6.73127e-16
3.54839e-16
-3.87584e-16
1.56118e-15
4.14525e-16
8.72394e-16
1.39218e-15
-1.44798e-15
9.98322e-16
-5.50652e-16
1.1035e-15
5.89074e-16
0
6.50483e-16
-6.93989e-16
7.07731e-16
0
2.85868e-18
0
-1.47939e-17
-9.6542e-17
7.00788e-17
3.41534e-17
0
-4.81234e-17
0
0
0
2.51582e-16
-3.3439e-16
3.03337e-16
-7.3516e-17
-5.54918e-16
0
-1.33687e-16
0
-4.72851e-16
4.88004e-16
0
-1.89013e-16
0
4.38514e-16
-4.44562e-16
2.52057e-16
2.20202e-17
-8.00357e-16
-2.86049e-16
3.02208e-16
0
-3.36563e-16
0
-1.5029e-20
4.07934e-16
2.89389e-17
-4.06294e-16
-9.02439e-16
-4.82555e-16
5.0734e-16
-5.33327e-16
0
-5.89084e-16
-6.19021e-16
-1.30097e-15
-6.94019e-16
-1.05698e-17
0
2.85478e-18
0
0
9.64518e-17
-9.74834e-17
0
0
0
1.80053e-16
-2.38145e-16
2.97715e-16
-3.01157e-16
0
-3.99174e-16
8.39301e-16
-4.40623e-16
5.11533e-16
3.37758e-17
-5.58603e-16
3.18155e-16
1.82211e-17
-3.44932e-16
0
4.1257e-16
-4.18184e-16
4.65312e-16
-4.71819e-16
0
0
0
-3.02174e-16
0
0
0
-3.73868e-16
0
0
0
-9.33267e-16
9.4922e-16
-5.07337e-16
-5.41959e-16
1.11223e-15
0
6.19017e-16
6.50476e-16
0
7.18328e-16
0
-2.58592e-17
-2.34885e-17
4.72206e-17
9.64605e-17
-2.20013e-16
1.23846e-16
1.77191e-16
-1.79149e-16
5.5431e-17
0
2.97718e-16
-3.0116e-16
0
-3.03239e-16
4.03957e-16
-1.14148e-16
-2.55767e-16
2.58945e-16
0
0
0
0
3.87649e-16
-3.92852e-16
-2.24327e-16
4.4449e-16
0
-5.22244e-16
5.29759e-16
-5.83807e-16
8.94629e-16
0
6.8594e-16
-6.96575e-16
7.61412e-16
-1.18148e-15
1.65824e-15
-8.57531e-16
-4.66634e-16
4.7461e-16
5.15688e-16
-5.24815e-16
-5.60502e-16
-5.9837e-16
6.09554e-16
0
0
7.18319e-16
0
-2.5877e-17
3.19879e-17
0
-1.17528e-16
9.7524e-17
0
-2.18238e-16
1.79183e-16
0
2.66128e-16
-2.69169e-16
-3.30447e-16
2.47023e-16
-9.59369e-17
2.17693e-16
2.44377e-16
-3.63049e-16
0
1.43951e-16
-1.54608e-16
1.65654e-16
0
-1.8899e-16
2.01319e-16
4.38466e-16
-4.44511e-16
7.34469e-16
-7.66939e-16
5.29781e-16
5.83829e-16
-2.90296e-16
-3.19008e-16
0
3.54805e-16
-3.73858e-16
8.01642e-16
-8.14674e-16
-4.36169e-16
4.58827e-16
4.82525e-16
5.15702e-16
8.46766e-18
1.13002e-15
9.09695e-18
-6.28692e-16
-6.70326e-16
1.35689e-15
-7.18319e-16
1.52122e-15
2.8566e-18
-4.36291e-18
-7.3952e-18
1.28024e-16
2.50308e-17
2.55757e-17
6.71506e-17
-1.55103e-16
0
-1.01544e-16
1.34573e-16
3.94659e-17
2.69401e-16
-3.83863e-16
2.54433e-16
-3.50546e-16
3.63034e-16
2.75838e-16
-4.95235e-16
4.72766e-16
-4.87918e-16
-3.63638e-16
5.57441e-16
-2.01316e-16
-2.14115e-16
3.51607e-16
-7.1304e-16
2.66678e-16
-5.29761e-16
5.83809e-16
-8.94636e-16
3.19003e-16
0
-3.548e-16
-3.8756e-16
3.79864e-16
0
6.61793e-16
-9.09996e-16
-4.82518e-16
-5.15687e-16
-8.47453e-18
-5.60505e-16
9.32232e-18
-1.54773e-15
1.95161e-15
-2.3926e-15
-2.14666e-17
-3.88498e-16
0
3.80516e-17
-4.72759e-17
-1.05204e-17
-1.37473e-17
-1.66582e-16
1.5114e-16
-2.54079e-16
1.80536e-16
-3.15089e-17
-3.54249e-17
-7.89358e-17
1.82157e-16
-1.36336e-16
3.51222e-21
2.36443e-16
-2.39344e-16
2.75886e-16
1.61278e-16
-2.23139e-16
0
0
9.4503e-17
4.12627e-16
-4.18241e-16
2.27423e-16
0
0
1.35257e-16
4.40846e-16
-5.92517e-16
0
1.68277e-16
0
-1.86938e-16
0
4.21827e-16
7.38328e-18
0
-4.90637e-16
2.45497e-16
5.41995e-16
1.7768e-17
-2.85442e-16
-9.69172e-18
6.40688e-16
-4.04821e-21
3.59165e-16
3.77474e-16
-1.42929e-18
4.36688e-18
-2.87437e-22
0
-6.12837e-17
7.90212e-17
0
2.40602e-17
-1.23508e-21
-3.15127e-17
3.54242e-17
-1.48889e-21
0
-9.59537e-17
1.65255e-16
-2.20345e-16
-2.55799e-16
1.92136e-16
-7.19818e-17
-7.73102e-17
0
-8.85624e-17
-1.89004e-16
-4.12602e-16
3.11148e-16
-1.13711e-16
0
5.22275e-16
-6.65045e-16
-5.83839e-16
1.20899e-15
-6.25778e-16
1.74711e-16
-5.25713e-16
1.86934e-16
0
0
-4.36181e-16
4.66648e-16
-4.74625e-16
7.69369e-16
-1.0668e-15
5.51738e-16
3.0385e-16
-1.54776e-15
3.15424e-16
-6.9398e-16
3.48562e-16
1.14372e-15
-2.16087e-17
4.66704e-17
1.93979e-17
-3.60167e-17
7.50547e-17
-6.19695e-17
0
0
2.77266e-17
-1.01591e-16
1.34625e-16
3.94707e-17
-4.36541e-17
2.47629e-16
-2.02042e-16
0
0
3.4274e-16
-5.76052e-16
6.96e-16
-3.22328e-16
8.85634e-17
9.45043e-17
0
4.38511e-16
-4.44561e-16
-1.20621e-16
0
0
1.43021e-16
0
0
-3.43007e-16
1.64258e-16
3.67172e-16
0
0
2.18094e-16
0
0
5.15728e-16
-5.24856e-16
5.69534e-16
-5.79984e-16
0
3.25241e-16
-1.29352e-21
0
-3.77473e-16
1.15087e-17
-1.1628e-17
0
0
0
-7.47412e-17
7.5558e-17
1.0297e-16
1.36615e-17
-1.19113e-16
0
1.25774e-16
-3.05673e-16
1.36325e-16
2.17716e-16
-2.77439e-16
0
-6.68426e-17
0
-1.54626e-16
0
-8.85635e-17
0
-1.00669e-16
5.45553e-16
-5.58247e-16
-1.26016e-16
3.83481e-16
1.13288e-17
-2.80262e-16
-3.08259e-16
3.12895e-16
0
0
0
0
0
0
0
0
0
-5.41977e-16
-2.9803e-16
1.17834e-15
-1.23826e-15
3.15428e-16
3.41768e-16
3.6459e-16
-3.71955e-16
-1.15173e-17
1.16366e-17
0
4.82692e-17
-4.87855e-17
0
8.86454e-17
-8.96249e-17
0
-1.33102e-16
2.8354e-16
-1.11167e-16
0
-1.5167e-16
2.0204e-16
5.70851e-17
0
6.68432e-17
-2.96681e-16
3.77775e-16
3.40547e-16
-6.20133e-16
3.68516e-16
-1.05649e-16
2.09126e-16
1.13716e-16
0
-1.33359e-16
2.64914e-16
0
3.08273e-16
-3.12909e-16
0
0
0
0
0
4.43754e-16
-4.51212e-16
-4.90639e-16
4.99172e-16
-5.41996e-16
8.32027e-16
0
0
-5.03014e-18
3.36683e-16
0
0
0
4.36669e-18
0
0
1.37474e-17
0
0
7.89089e-17
-1.0412e-16
0
-1.48899e-16
1.5062e-16
4.36523e-17
0
0
-5.70835e-17
0
0
2.20314e-16
-1.5022e-16
2.53097e-16
9.34998e-18
9.59934e-18
-5.03422e-16
4.28356e-16
-3.3598e-16
1.20618e-16
0
0
-1.43019e-16
3.08259e-16
1.23744e-17
-3.30235e-16
3.61461e-16
-7.47879e-16
-1.40095e-17
4.07344e-16
-4.43736e-16
4.51194e-16
0
0
0
-2.84754e-16
2.89979e-16
3.14344e-16
-3.20331e-16
0
-3.64589e-16
3.71954e-16
7.14617e-19
-2.18333e-18
3.69827e-18
-4.30025e-17
4.1906e-17
8.53804e-18
-1.02563e-17
1.20308e-17
0
0
-1.77127e-17
1.65255e-16
-4.14825e-16
8.44938e-17
1.27242e-16
-3.25965e-17
1.19673e-16
0
-3.59923e-17
0
-8.28357e-17
0
4.72515e-17
3.06981e-16
1.01291e-17
1.80981e-16
-6.63507e-16
2.5014e-16
6.76284e-17
-1.48911e-16
2.96256e-16
-7.97557e-17
8.41377e-17
3.61469e-16
-7.47895e-16
3.86825e-16
1.03626e-16
1.09046e-16
1.1471e-16
0
1.26834e-16
2.70993e-16
-2.75876e-16
0
4.69103e-16
-3.20337e-16
0
1.79579e-16
0
-1.42913e-18
-4.36653e-18
-2.86109e-22
-1.05217e-17
-1.37468e-17
6.62015e-17
-1.19869e-16
4.48036e-17
-4.50271e-17
-2.27414e-17
-7.14589e-18
1.38195e-16
-8.35867e-17
7.58249e-17
-2.09865e-16
8.16339e-17
-3.09376e-17
-3.34197e-17
-7.19822e-17
-3.86549e-17
4.14165e-17
2.26115e-16
-1.84244e-16
5.03326e-17
5.35324e-17
-2.8953e-16
3.56544e-16
3.25035e-16
-2.64898e-16
7.15083e-17
7.55479e-17
1.59509e-16
3.42985e-16
-4.40329e-16
2.77041e-16
0
-9.00278e-22
2.21865e-16
-4.5892e-16
3.57945e-16
-9.30406e-22
1.33325e-16
1.40129e-16
1.47264e-16
-1.54752e-16
1.62615e-16
-1.76106e-16
-1.07305e-17
3.71953e-16
-5.04165e-18
-3.69257e-18
8.11603e-18
5.26068e-18
3.75186e-17
-3.09766e-17
1.02557e-17
1.20299e-17
-5.8891e-17
7.53117e-17
1.09873e-16
7.31289e-18
-3.99382e-17
1.23802e-16
-1.27235e-16
2.85404e-17
1.89779e-16
-2.34009e-16
1.75662e-16
3.86549e-17
-3.67477e-22
-3.7483e-22
-4.72504e-17
-2.56638e-16
1.55579e-16
5.6855e-17
1.23316e-16
-5.83911e-17
-2.70563e-16
6.86215e-17
-4.24589e-22
-4.29317e-22
-2.5563e-16
1.74152e-16
-2.83828e-16
-7.00474e-18
1.00047e-16
-3.30911e-16
2.25595e-16
-1.20633e-16
-2.53665e-16
-4.23514e-22
-1.40129e-16
4.6635e-18
-1.45191e-16
-3.15303e-16
-1.60564e-16
-7.13013e-16
-1.88732e-16
-7.14454e-19
0
-3.69767e-18
-5.2603e-18
-6.87274e-18
0
-1.0255e-17
-1.20291e-17
-1.38621e-17
-1.57547e-17
-1.09868e-16
9.50399e-17
-1.34719e-16
9.21472e-17
0
-5.70799e-17
6.60257e-17
-2.6742e-16
2.52001e-16
-1.88867e-16
-4.14159e-17
-1.79474e-16
4.48709e-17
-1.0315e-16
5.10223e-17
-1.13709e-16
-2.43927e-16
-6.93991e-17
-2.80526e-18
-7.15067e-17
-7.55471e-17
-1.59506e-16
-2.55625e-16
2.66173e-16
-8.66788e-17
-3.93813e-16
2.03667e-16
-1.09042e-16
-2.29414e-16
2.45305e-16
-2.4957e-16
4.33616e-18
-2.75866e-16
-1.49592e-16
3.0714e-16
-2.51299e-18
1.70947e-16
-1.76927e-16
3.77461e-16
3.57209e-19
0
1.84883e-18
5.26028e-18
3.40783e-17
-3.09732e-17
5.12757e-18
3.77694e-17
-3.29585e-17
2.36318e-17
1.7711e-17
-9.8665e-18
-2.37095e-17
3.40793e-17
0
-4.48347e-17
1.06234e-16
0
-5.61659e-17
1.48872e-17
1.44991e-16
-6.41e-17
1.20543e-16
-2.26533e-16
1.31317e-16
2.8427e-17
6.03059e-17
3.19472e-17
6.76251e-17
1.8171e-16
-1.85891e-16
3.98763e-17
2.13556e-16
-1.74148e-16
9.34642e-17
-1.00203e-16
1.55472e-16
-5.26719e-17
1.14706e-16
-6.03149e-17
-2.09271e-18
1.97866e-16
0
2.23223e-16
-7.5014e-17
0
-2.61265e-18
3.56501e-16
-2.83094e-16
3.57242e-19
0
9.24496e-19
0
1.71827e-18
1.86837e-17
-1.37605e-17
3.0071e-18
3.98387e-17
-3.76528e-17
-4.42754e-18
-3.14416e-17
3.63354e-17
-3.79104e-17
5.05013e-17
7.13496e-18
-1.5468e-17
-7.73186e-17
8.78263e-17
9.88714e-17
-5.98639e-17
1.10697e-17
7.2083e-17
-3.65264e-17
2.67652e-17
1.42135e-17
-6.16558e-17
1.1045e-16
0
-5.51011e-17
1.5884e-17
1.79472e-16
-4.04885e-17
2.2175e-17
0
-1.00203e-16
1.53643e-16
-8.36699e-17
-3.86453e-18
1.48811e-16
-1.28922e-16
3.00025e-16
-1.029e-16
7.36303e-17
1.20995e-18
-1.20734e-16
-8.67458e-17
-4.75761e-17
2.34535e-16
8.92985e-20
2.92182e-18
2.42386e-18
-3.84159e-18
1.71804e-18
-1.04079e-17
-3.51882e-19
8.1919e-18
-1.81854e-17
-1.74635e-18
2.34643e-17
1.81863e-17
-3.8204e-17
2.30348e-17
0
-2.24161e-17
2.99133e-17
4.28349e-17
-3.49144e-17
1.98854e-17
2.24195e-17
-3.78635e-18
-1.71228e-17
6.29121e-18
-4.8115e-17
4.06927e-17
-8.87594e-18
-1.73493e-17
-1.41607e-18
-1.11314e-17
1.31473e-16
2.14843e-17
-8.41475e-17
2.13608e-17
4.75878e-17
-3.60452e-17
0
2.72598e-17
0
-3.11674e-17
-2.06904e-18
9.89307e-17
-7.06235e-17
3.62457e-17
-3.92913e-17
3.94115e-17
6.34419e-17
6.80189e-17
-2.21946e-17
-8.9299e-20
0
-4.62165e-19
-6.57478e-19
0
2.13407e-18
1.58121e-25
1.50354e-18
0
0
-2.21389e-18
1.43556e-22
0
2.99821e-18
-3.27808e-18
2.10129e-22
-3.86689e-18
4.17688e-18
-4.49825e-18
0
-5.17638e-18
-5.53497e-18
-1.18118e-17
1.2582e-17
3.99209e-22
0
7.53805e-18
4.98064e-22
8.45243e-18
-8.9381e-18
-9.44304e-18
0
3.27085e-22
-3.32157e-22
0
-1.23044e-17
3.88457e-22
0
-1.4338e-17
0
0
0
1.75155e-17
-5.70645e-22
5.81311e-22
0
-2.13597e-17
2.24466e-17
-4.71822e-17
0
3.4675e-18
-2.49025e-18
-7.34552e-18
6.09506e-18
-1.04079e-17
8.16115e-18
8.35835e-18
-2.42678e-17
2.19208e-18
1.6823e-17
2.46651e-18
2.27654e-17
-5.09835e-17
2.85272e-17
-7.13458e-18
-2.81058e-17
3.6547e-17
2.30378e-17
-1.87755e-17
4.77382e-17
-6.58455e-17
4.706e-18
-3.33096e-17
7.29858e-17
-1.3568e-17
-6.1654e-17
9.51689e-17
-9.29949e-17
3.50302e-17
4.79727e-17
-5.98274e-17
8.41475e-17
4.68241e-17
-1.62736e-16
-1.75116e-18
1.03639e-16
-1.09059e-16
7.0734e-17
0
-3.2753e-17
3.17289e-17
1.69667e-17
7.47945e-17
-1.15484e-16
-1.24106e-18
8.48015e-17
4.55724e-17
-2.36096e-17
2.87769e-18
-3.45321e-18
0
1.33779e-17
-1.2192e-17
0
0
3.0071e-18
2.59777e-17
-3.3714e-17
0
0
0
4.99037e-17
-5.05014e-17
-5.19696e-17
5.98295e-17
-8.35434e-18
7.41605e-17
-7.51052e-17
0
4.5457e-17
-4.6059e-17
0
5.48079e-17
-6.9777e-17
-6.16558e-17
6.25304e-17
-5.21483e-17
-2.91549e-18
7.4059e-17
-1.99377e-17
-8.57441e-17
1.77435e-16
-6.84193e-17
1.00203e-16
-1.01832e-16
-1.1093e-16
1.12795e-16
1.22651e-16
-1.56491e-16
0
0
0
0
-1.25682e-18
-4.52989e-17
2.69397e-16
-4.5805e-17
5.75499e-18
-1.75043e-17
1.1812e-17
5.26029e-18
6.87272e-18
3.73675e-17
-3.77759e-17
-2.57403e-17
2.60279e-17
3.32685e-17
-1.59377e-17
6.10416e-17
2.55665e-17
-4.60726e-17
0
0
0
6.89647e-17
4.32867e-18
-7.51056e-17
0
4.42785e-17
4.96693e-17
-1.4855e-16
-5.35308e-17
0
0
0
6.76251e-17
-7.15065e-17
0
2.42381e-16
-1.65111e-16
0
0
-1.76953e-18
-1.78932e-18
0
1.14706e-16
0
0
1.3549e-16
4.44179e-18
4.60634e-18
-1.52388e-16
8.13066e-17
0
-8.70692e-17
9.99492e-17
0
-2.18319e-18
0
-5.26031e-18
-6.87275e-18
3.73686e-17
-3.7777e-17
0
0
-6.65387e-17
4.9588e-17
6.28852e-17
-1.05409e-16
9.98101e-17
-1.83773e-17
-2.28384e-16
1.19662e-16
0
0
0
0
-8.85581e-17
4.7249e-17
1.53481e-16
-5.10223e-17
0
-1.23314e-16
6.11677e-17
-6.76254e-17
7.15067e-17
1.54125e-16
-2.36196e-16
-1.71491e-16
1.74149e-16
-9.34655e-17
-9.84342e-17
3.14524e-16
-2.14388e-16
-2.29414e-16
2.45305e-16
-2.49571e-16
1.37659e-16
-4.1824e-16
1.44987e-16
0
-3.27741e-16
1.70946e-16
-1.76929e-16
3.10798e-22
5.04165e-18
-5.81578e-18
-3.69795e-18
-5.26068e-18
2.37721e-17
-3.95142e-17
3.40592e-17
-5.68345e-17
-1.38624e-17
-8.22976e-17
6.73025e-17
-1.97343e-17
-2.18253e-17
-2.39879e-17
-2.94408e-22
-1.46756e-16
8.87284e-17
-1.71356e-16
-4.46482e-17
1.11563e-16
1.70261e-16
-8.39267e-17
0
5.03327e-17
-5.35324e-17
5.68554e-17
6.30088e-17
-1.27845e-16
6.48222e-17
7.15083e-17
7.85805e-17
-7.66919e-17
8.73577e-17
-8.54493e-17
-4.4247e-22
9.8436e-17
-3.1453e-16
3.23435e-16
-4.49121e-22
3.65942e-16
-3.76408e-16
5.37637e-16
-2.7587e-16
1.47264e-16
0
1.62615e-16
-1.76108e-16
7.13013e-16
-3.80293e-16
7.14513e-19
4.36652e-18
-3.1925e-17
8.95144e-17
-9.63105e-17
-1.279e-17
8.5812e-17
-3.94537e-17
5.20583e-17
1.57555e-17
0
-6.28867e-17
1.96485e-16
3.16509e-17
-7.47829e-17
-6.53436e-22
-6.60266e-17
1.62911e-16
3.59908e-17
-7.02305e-22
-1.7026e-16
3.54321e-16
-1.36992e-16
-1.00666e-16
1.07066e-16
7.71871e-22
2.46631e-16
-5.28862e-17
-1.29642e-16
8.19556e-22
7.55479e-17
-7.97541e-17
8.41361e-17
-2.69432e-16
4.67402e-16
-1.93406e-16
2.07249e-16
-1.09044e-16
2.29417e-16
-2.45307e-16
3.76406e-16
-4.04311e-16
4.15998e-16
-1.47263e-16
0
-1.62615e-16
1.70882e-16
5.83901e-22
3.83122e-16
0
-2.18339e-18
-2.82353e-17
-1.22547e-17
5.56536e-17
8.53804e-18
2.05127e-17
0
1.3863e-17
3.15128e-17
-1.48908e-16
1.901e-16
1.82158e-16
-3.65157e-17
-4.85625e-17
2.85417e-17
3.09391e-17
0
7.19841e-17
3.8656e-17
-8.74323e-17
-5.36312e-17
1.37001e-16
1.51002e-16
-2.72782e-16
-6.72671e-17
4.16865e-16
0
6.76289e-17
2.20421e-16
-2.96256e-16
1.59512e-16
0
0
0
-9.84378e-17
-5.25447e-16
4.28794e-16
1.14711e-16
-1.20635e-16
5.11527e-16
8.57177e-18
-1.35744e-16
2.99197e-16
-3.04789e-16
5.02873e-18
-5.07561e-16
-9.0333e-16
-5.50667e-18
-1.42935e-18
0
-7.3965e-18
0
-1.37474e-17
-1.70769e-17
-1.09142e-16
6.55467e-17
0
-3.15126e-17
1.48899e-16
-1.90091e-16
0
-2.47608e-16
9.71146e-17
0
-6.18773e-17
0
-7.19836e-17
8.17861e-17
-2.43987e-16
9.32746e-17
-1.84246e-16
1.05639e-16
-3.16182e-16
0
-1.20618e-16
0
-2.70514e-16
2.91924e-16
-2.96248e-16
-4.8478e-16
3.30235e-16
-1.77411e-16
0
-4.00827e-16
-1.44689e-17
4.28785e-16
-4.58841e-16
0
-2.53668e-16
0
-2.80261e-16
0
3.14344e-16
9.92621e-18
-3.36671e-16
-1.08465e-21
-5.65881e-18
1.42937e-18
0
-2.82397e-17
2.5491e-17
-7.50521e-17
7.90438e-17
-2.05136e-17
2.40622e-17
0
1.01588e-16
-1.7005e-16
-1.65264e-16
-5.86236e-17
1.84323e-16
1.04908e-16
2.36453e-16
-4.95185e-16
2.59008e-16
0
7.73141e-17
4.23384e-16
1.87004e-17
-3.68516e-16
1.0067e-16
1.0707e-16
0
1.2062e-16
0
1.3526e-16
0
0
-1.59514e-16
3.43005e-16
1.90568e-16
-5.54109e-16
0
0
-2.18095e-16
2.29424e-16
2.41273e-16
2.53673e-16
8.08654e-16
-5.51761e-16
0
6.23866e-16
-3.25372e-16
6.78454e-16
-5.43787e-18
-1.11639e-17
-1.42942e-18
-2.33788e-17
8.8294e-18
-3.77316e-17
1.22993e-18
6.19511e-17
2.05134e-17
-1.27032e-16
1.0412e-16
1.64598e-16
-6.37525e-17
1.25774e-16
-7.98716e-17
-4.79787e-17
-5.24536e-17
0
2.5581e-16
-3.2583e-16
-7.19848e-17
0
1.74852e-16
-2.56412e-16
2.93187e-16
-4.93564e-16
-5.45553e-16
5.58247e-16
-2.41238e-16
-2.61143e-16
2.649e-16
2.91924e-16
-1.3909e-16
-1.53382e-16
-1.68277e-16
0
-1.93789e-16
3.86818e-16
0
2.18093e-16
0
-4.82541e-16
2.62036e-16
-7.91489e-16
0
-2.94533e-16
3.19072e-22
-3.25237e-16
5.22177e-18
5.29772e-18
0
2.85876e-18
4.36703e-18
-2.82421e-17
4.65393e-17
0
0
0
2.40626e-17
0
0
-1.18692e-21
7.89428e-17
-4.36542e-17
4.79796e-17
0
2.36455e-16
7.83537e-17
8.37314e-17
8.93014e-17
-3.77776e-16
8.28378e-17
8.85635e-17
1.61323e-21
1.00669e-16
1.6634e-21
-1.13716e-16
1.20621e-16
5.22316e-16
-3.94573e-16
-1.43022e-16
6.10479e-16
-1.53398e-16
-1.74728e-16
5.25738e-16
3.80744e-16
-3.86836e-16
2.07255e-16
0
2.29424e-16
4.90645e-16
-2.45503e-16
0
5.69534e-16
-2.85445e-16
-9.38229e-16
1.95172e-15
-6.73373e-16
-3.59165e-16
0
-2.85861e-18
-4.36698e-18
-7.39659e-18
2.7205e-17
-1.10049e-16
1.36681e-16
-7.44146e-18
-1.13662e-16
0
0
-3.54256e-17
8.62974e-17
-1.67169e-16
-4.79761e-17
-2.17706e-16
4.56768e-16
-6.18877e-16
-8.37272e-17
2.79335e-16
-2.40876e-16
2.3946e-16
-1.77123e-16
9.45032e-17
-1.00668e-16
5.45542e-16
-4.44522e-16
0
-6.50068e-16
8.11726e-16
-4.17493e-16
-1.51099e-16
-4.84776e-16
1.61956e-16
-1.77411e-16
0
-1.96874e-16
-4.14503e-16
0
-4.5884e-16
2.4127e-16
-1.02304e-15
-1.71439e-17
2.71478e-16
-2.94531e-16
0
1.00453e-17
-1.01511e-15
-3.59159e-16
0
-2.16083e-17
-2.35083e-17
-1.66024e-17
8.25502e-17
-1.22603e-16
2.73434e-16
4.66526e-17
-1.55179e-16
-1.17792e-16
1.19123e-16
-1.48908e-16
1.90099e-16
0
4.7977e-17
0
-2.36444e-16
4.54011e-17
3.25839e-16
-2.96672e-16
3.00451e-16
4.23372e-16
-2.56426e-16
0
-4.12628e-16
8.56742e-16
-4.44548e-16
0
1.27795e-16
1.35257e-16
-5.83867e-16
5.92517e-16
0
8.5428e-16
-6.96638e-16
0
1.96878e-16
-2.14573e-16
4.28799e-16
2.29423e-16
4.90637e-16
-2.45497e-16
0
2.80266e-16
-3.03869e-16
-1.91219e-17
9.65929e-16
6.94012e-16
-3.48585e-16
3.77474e-16
0
-8.72886e-18
0
-2.10354e-17
0
0
-4.10121e-17
-2.05881e-16
2.08182e-16
0
-2.19701e-16
3.15799e-16
-1.67144e-16
1.03657e-16
-4.19666e-16
4.56716e-16
-3.63035e-16
0
0
-3.18161e-16
3.22266e-16
0
0
0
-2.14116e-16
0
2.41217e-16
2.5557e-16
-2.70494e-16
-2.8602e-16
-3.02178e-16
-3.31496e-16
6.6043e-16
3.548e-16
3.73852e-16
0
-8.36278e-16
4.28766e-16
4.58821e-16
0
-5.07318e-16
5.33289e-16
0
5.89046e-16
0
-6.50457e-16
3.41767e-16
7.1831e-16
-3.77472e-16
-2.85686e-18
8.72899e-18
7.12361e-17
-7.19889e-17
0
0
1.83188e-21
-4.81068e-17
2.35524e-16
2.79423e-17
-4.25254e-16
3.01197e-16
-8.72866e-17
4.95153e-16
-4.03995e-16
-1.14148e-16
1.23738e-16
0
-1.43949e-16
-1.54605e-16
0
-1.77106e-16
1.98682e-16
-3.92873e-16
2.14119e-16
-2.27408e-16
-2.4122e-16
1.11224e-17
-2.59283e-16
2.86024e-16
2.81543e-21
-2.86076e-21
6.85963e-16
-1.40621e-15
-3.01667e-21
-3.93734e-16
4.1449e-16
4.36166e-16
-3.27563e-21
-4.82522e-16
1.02303e-15
1.71413e-17
-1.11225e-15
-3.52521e-21
-6.28692e-16
6.40671e-16
6.83531e-16
1.08806e-17
-1.49888e-15
2.85686e-18
0
7.12073e-17
4.55346e-17
-2.20013e-16
1.23846e-16
8.20167e-17
4.81068e-17
-5.54311e-17
-2.03089e-16
1.98299e-16
-7.89177e-17
8.72865e-17
0
2.17674e-16
-2.20308e-16
1.23731e-16
0
1.43949e-16
-3.18151e-16
4.87907e-16
1.77106e-16
5.76637e-16
2.2103e-16
-4.18184e-16
6.9272e-16
2.14083e-17
1.09112e-17
2.81928e-16
-5.60481e-16
9.18657e-16
-6.25753e-16
3.49413e-16
1.30242e-17
-7.61418e-16
1.16733e-15
-4.1448e-16
-6.71828e-21
-6.87459e-21
4.82522e-16
-5.07315e-16
8.66659e-18
1.13878e-15
-1.16899e-15
0
6.50463e-16
-1.36705e-15
0
6.75374e-21
0
-8.73125e-18
7.11975e-17
4.55403e-17
-2.19997e-16
8.96923e-17
-4.10058e-17
-2.53977e-16
4.99079e-16
-3.01149e-16
0
7.89178e-17
0
3.99174e-16
3.13915e-17
-3.2648e-16
-1.23731e-16
-5.51664e-16
5.58603e-16
-1.58689e-20
9.17242e-18
1.87007e-17
-5.57448e-16
2.11259e-16
-6.32311e-16
0
2.51998e-16
-7.55789e-16
2.7049e-16
0
0
-6.38017e-16
3.36527e-16
-1.07768e-15
3.60418e-16
-1.19536e-15
3.85542e-16
-9.02242e-16
4.43531e-16
4.82536e-16
5.07315e-16
-5.33308e-16
-5.60502e-16
-5.89065e-16
1.24769e-15
-6.50684e-16
1.35686e-15
1.44751e-15
2.23474e-17
0
8.73131e-18
-1.47939e-17
-2.10396e-17
-1.2261e-16
8.56684e-18
1.51148e-16
4.81145e-17
0
-3.29227e-16
-2.85866e-17
3.01273e-16
3.6433e-16
-7.67937e-16
7.34638e-16
-4.40747e-16
0
0
-2.96682e-16
1.36857e-16
8.2854e-16
-3.45e-16
-1.26891e-20
0
2.14129e-16
-4.65384e-16
1.20643e-15
-5.00299e-16
0
-2.86049e-16
6.16555e-16
-9.57384e-16
1.34653e-15
-6.96657e-16
7.61495e-16
-3.7993e-16
0
4.36182e-16
-4.58857e-16
-1.46383e-15
-5.40462e-16
1.04971e-15
-5.60543e-16
5.89068e-16
-6.19021e-16
-6.5048e-16
-6.94019e-16
7.18652e-16
1.10043e-17
0
8.7363e-18
-3.57741e-21
0
2.75008e-17
0
4.10325e-17
4.81299e-17
0
3.2919e-16
-1.98346e-16
-3.30488e-16
3.34353e-16
3.99257e-16
-6.29648e-16
5.54887e-16
0
-4.18057e-16
5.58692e-16
-4.81764e-16
8.10295e-16
0
-9.66547e-18
8.05516e-16
-8.56721e-16
6.7198e-16
0
2.55605e-16
0
-1.19613e-20
-3.14311e-16
6.25798e-16
-3.49421e-16
6.96626e-16
-3.87571e-16
3.79875e-16
8.43639e-16
4.66107e-16
4.89766e-16
-4.66713e-16
5.07347e-16
1.08396e-15
1.75796e-17
0
0
0
0
7.29191e-16
2.23436e-17
0
-8.7365e-18
1.47975e-17
1.17635e-16
-1.25117e-16
3.41628e-17
3.36714e-21
-4.8131e-17
-2.35659e-16
2.38322e-16
-7.08617e-17
-7.89563e-17
-3.64405e-16
8.64061e-16
-9.4462e-16
3.26646e-16
-5.11741e-16
3.84401e-16
1.43988e-16
-1.5464e-16
-3.3138e-16
0
-1.89025e-16
0
4.38561e-16
-6.72057e-16
-2.52087e-16
2.44737e-16
-5.52543e-16
2.62738e-16
1.2092e-15
-1.27651e-15
3.23986e-16
0
-3.739e-16
7.87567e-16
-8.43731e-16
4.21464e-16
9.33416e-16
-9.49364e-16
0
5.33344e-16
-5.6056e-16
0
-1.24781e-15
6.40728e-16
1.0463e-17
7.39809e-16
-2.26522e-15
2.86007e-18
0
7.12503e-17
-1.89574e-16
9.75502e-17
-3.41618e-17
-4.10356e-17
0
5.54659e-17
6.30396e-17
2.97827e-16
1.08207e-16
-6.98718e-16
-1.26623e-16
-3.13922e-17
5.54932e-16
0
0
-1.43984e-16
0
3.31379e-16
-5.50254e-16
1.51247e-15
-1.19848e-15
6.42607e-16
2.08214e-17
-2.19849e-16
-2.44682e-16
-5.52488e-16
-2.33246e-17
-1.1915e-17
-6.5057e-16
-2.55109e-17
1.0515e-15
0
-3.93776e-16
-4.14533e-16
0
0
9.81283e-16
-9.98345e-16
1.08399e-15
5.96087e-16
-2.35676e-15
-3.82411e-17
6.20829e-16
2.05091e-15
-1.42607e-15
-1.13126e-17
-2.86017e-18
0
0
0
0
0
0
-2.06047e-16
1.52881e-16
-6.30417e-17
-2.97917e-16
-2.92536e-17
3.34482e-16
0
0
3.58818e-16
-9.90573e-16
5.1812e-16
5.93472e-16
-6.01032e-16
-8.46906e-16
5.12963e-16
0
0
-2.2441e-16
4.44624e-16
0
-2.55622e-16
5.52558e-16
-1.14457e-15
8.94834e-16
6.50645e-16
-6.60579e-16
-3.54859e-16
0
0
4.14547e-16
8.87598e-16
-9.02516e-16