/*--------------------------------*- C++ -*----------------------------------*\
  =========                 |
  \\      /  F ield         | OpenFOAM: The Open Source CFD Toolbox
   \\    /   O peration     | Website:  https://openfoam.org
    \\  /    A nd           | Version:  6
     \\/     M anipulation  |
\*---------------------------------------------------------------------------*/
FoamFile
{
    version     2.0;
    format      ascii;
    class       volScalarField;
    location    "120";
    object      T;
}
// * * * * * * * * * * * * * * * * * * * * * * * * * * * * * * * * * * * * * //

dimensions      [0 0 0 1 0 0 0];

internalField   nonuniform List<scalar> 
13524
(
0.0219881
0.0665375
0.111576
0.157103
0.203124
0.249645
0.296676
0.344226
0.392306
0.440927
0.490102
0.539842
0.590162
0.641074
0.692593
0.744732
0.797508
0.850935
0.905031
0.959812
1.0153
1.0715
1.12844
1.18614
1.24463
1.30391
1.36402
1.42497
1.4868
1.54952
1.61316
1.67776
1.74333
1.80991
1.87754
1.94623
2.01604
2.08699
2.15912
2.23248
2.30709
2.38302
2.46031
2.539
2.61915
2.70082
2.78406
2.86896
2.95559
0.0220809
0.0667255
0.111814
0.157369
0.203406
0.249936
0.296973
0.344526
0.392608
0.441231
0.490407
0.540148
0.590469
0.641381
0.6929
0.745039
0.797815
0.851243
0.905339
0.96012
1.0156
1.07181
1.12875
1.18645
1.24494
1.30422
1.36433
1.42528
1.48711
1.54983
1.61347
1.67807
1.74364
1.81022
1.87784
1.94654
2.01635
2.0873
2.15943
2.23278
2.3074
2.38333
2.46061
2.5393
2.61945
2.70111
2.78435
2.86921
2.95575
0.0220189
0.0666207
0.1117
0.157256
0.203298
0.249834
0.296875
0.344432
0.392517
0.441141
0.490319
0.540061
0.590382
0.641295
0.692814
0.744954
0.79773
0.851158
0.905254
0.960034
1.01552
1.07172
1.12867
1.18637
1.24485
1.30413
1.36424
1.4252
1.48702
1.54974
1.61339
1.67798
1.74355
1.81014
1.87776
1.94646
2.01626
2.08721
2.15934
2.2327
2.30732
2.38324
2.46053
2.53922
2.61936
2.70102
2.78424
2.8691
2.95565
0.0220939
0.0667637
0.111875
0.157448
0.203499
0.250041
0.297086
0.344645
0.392732
0.441359
0.490537
0.540281
0.590602
0.641515
0.693035
0.745175
0.797951
0.851379
0.905475
0.960256
1.01574
1.07194
1.12889
1.18659
1.24507
1.30436
1.36446
1.42542
1.48724
1.54996
1.61361
1.6782
1.74378
1.81036
1.87798
1.94668
2.01648
2.08743
2.15956
2.23292
2.30754
2.38346
2.46075
2.53943
2.61958
2.70123
2.78444
2.86928
2.95578
0.0220237
0.0666347
0.111722
0.157285
0.203333
0.249874
0.296918
0.344478
0.392566
0.441192
0.490371
0.540114
0.590436
0.641349
0.692869
0.74501
0.797786
0.851214
0.90531
0.960091
1.01557
1.07178
1.12872
1.18642
1.24491
1.30419
1.3643
1.42525
1.48708
1.5498
1.61344
1.67804
1.74361
1.81019
1.87782
1.94651
2.01632
2.08727
2.1594
2.23275
2.30737
2.3833
2.46058
2.53927
2.61941
2.70106
2.78428
2.86912
2.95566
0.0220892
0.0667519
0.111857
0.157426
0.203474
0.250014
0.297057
0.344616
0.392703
0.441329
0.490507
0.54025
0.590571
0.641484
0.693004
0.745144
0.79792
0.851348
0.905444
0.960225
1.01571
1.07191
1.12886
1.18656
1.24504
1.30433
1.36443
1.42539
1.48721
1.54993
1.61358
1.67817
1.74375
1.81033
1.87795
1.94665
2.01645
2.0874
2.15953
2.23289
2.30751
2.38343
2.46072
2.5394
2.61955
2.7012
2.78442
2.86926
2.95577
0.0220124
0.0666019
0.111671
0.157221
0.203257
0.24979
0.296828
0.344384
0.392468
0.441092
0.49027
0.540012
0.590333
0.641246
0.692765
0.744905
0.797681
0.851109
0.905205
0.959986
1.01547
1.07167
1.12862
1.18632
1.2448
1.30409
1.36419
1.42515
1.48697
1.54969
1.61334
1.67793
1.74351
1.81009
1.87771
1.94641
2.01621
2.08716
2.1593
2.23265
2.30727
2.3832
2.46048
2.53917
2.61931
2.70097
2.7842
2.86906
2.95564
0.0220547
0.0666727
0.111748
0.157295
0.203328
0.249856
0.296891
0.344444
0.392526
0.441149
0.490325
0.540066
0.590387
0.641299
0.692818
0.744958
0.797734
0.851161
0.905257
0.960038
1.01552
1.07172
1.12867
1.18637
1.24485
1.30414
1.36424
1.4252
1.48702
1.54975
1.61339
1.67798
1.74356
1.81014
1.87776
1.94646
2.01627
2.08722
2.15935
2.2327
2.30732
2.38325
2.46053
2.53922
2.61937
2.70103
2.78427
2.86914
2.95571
0.0220139
0.06659
0.111642
0.157177
0.203202
0.249726
0.296759
0.34431
0.39239
0.441012
0.490188
0.539929
0.590249
0.641161
0.69268
0.74482
0.797595
0.851023
0.905118
0.959899
1.01538
1.07159
1.12853
1.18623
1.24471
1.304
1.36411
1.42506
1.48689
1.54961
1.61325
1.67785
1.74342
1.81
1.87762
1.94632
2.01613
2.08708
2.15921
2.23256
2.30718
2.38311
2.4604
2.53909
2.61924
2.7009
2.78414
2.86903
2.95564
0.0219989
0.0665645
0.111614
0.157149
0.203176
0.249701
0.296734
0.344285
0.392367
0.440989
0.490165
0.539906
0.590226
0.641138
0.692657
0.744796
0.797572
0.851
0.905095
0.959876
1.01536
1.07156
1.12851
1.18621
1.24469
1.30397
1.36408
1.42504
1.48686
1.54958
1.61323
1.67782
1.7434
1.80998
1.8776
1.9463
2.0161
2.08705
2.15918
2.23254
2.30716
2.38309
2.46037
2.53906
2.61921
2.70088
2.78412
2.869
2.95561
0.0220783
0.0667231
0.111814
0.157372
0.203411
0.249944
0.296982
0.344537
0.39262
0.441244
0.49042
0.540162
0.590483
0.641396
0.692915
0.745054
0.79783
0.851258
0.905353
0.960134
1.01562
1.07182
1.12876
1.18647
1.24495
1.30423
1.36434
1.42529
1.48712
1.54984
1.61348
1.67808
1.74365
1.81024
1.87786
1.94656
2.01636
2.08731
2.15944
2.2328
2.30742
2.38334
2.46063
2.53932
2.61946
2.70112
2.78435
2.86921
2.95575
0.0220224
0.066627
0.111707
0.157264
0.203307
0.249843
0.296885
0.344443
0.392528
0.441154
0.490331
0.540074
0.590395
0.641308
0.692827
0.744967
0.797743
0.85117
0.905266
0.960046
1.01553
1.07173
1.12868
1.18638
1.24486
1.30414
1.36425
1.42521
1.48703
1.54975
1.6134
1.67799
1.74357
1.81015
1.87777
1.94647
2.01627
2.08722
2.15935
2.23271
2.30733
2.38326
2.46054
2.53923
2.61937
2.70103
2.78425
2.8691
2.95566
0.0220846
0.0667448
0.111851
0.157421
0.203471
0.250012
0.297057
0.344616
0.392703
0.44133
0.490508
0.540251
0.590573
0.641486
0.693005
0.745145
0.797921
0.851348
0.905444
0.960224
1.01571
1.07191
1.12885
1.18656
1.24504
1.30432
1.36443
1.42538
1.48721
1.54993
1.61357
1.67817
1.74374
1.81033
1.87795
1.94665
2.01645
2.0874
2.15953
2.23289
2.30751
2.38343
2.46072
2.5394
2.61955
2.7012
2.78442
2.86925
2.95576
0.0220267
0.0666383
0.111724
0.157287
0.203333
0.249874
0.296918
0.344478
0.392565
0.441191
0.49037
0.540113
0.590434
0.641347
0.692866
0.745006
0.797782
0.851209
0.905305
0.960085
1.01557
1.07177
1.12871
1.18642
1.2449
1.30418
1.36429
1.42524
1.48707
1.54979
1.61344
1.67803
1.7436
1.81019
1.87781
1.94651
2.01631
2.08726
2.15939
2.23275
2.30737
2.3833
2.46058
2.53927
2.61941
2.70106
2.78428
2.86912
2.95567
0.0220793
0.0667332
0.111835
0.157403
0.20345
0.24999
0.297033
0.344592
0.392678
0.441304
0.490481
0.540224
0.590545
0.641457
0.692976
0.745115
0.797891
0.851318
0.905413
0.960193
1.01568
1.07188
1.12882
1.18652
1.24501
1.30429
1.3644
1.42535
1.48718
1.5499
1.61354
1.67814
1.74371
1.81029
1.87792
1.94662
2.01642
2.08737
2.1595
2.23286
2.30748
2.38341
2.46069
2.53938
2.61952
2.70118
2.7844
2.86924
2.95575
0.0220232
0.0666254
0.111702
0.157256
0.203296
0.24983
0.29687
0.344425
0.392509
0.441133
0.490309
0.540051
0.590371
0.641283
0.692801
0.74494
0.797715
0.851142
0.905237
0.960017
1.0155
1.0717
1.12865
1.18635
1.24483
1.30411
1.36422
1.42518
1.487
1.54972
1.61337
1.67796
1.74353
1.81012
1.87774
1.94644
2.01624
2.08719
2.15933
2.23268
2.3073
2.38323
2.46052
2.53921
2.61935
2.70101
2.78424
2.8691
2.95566
0.0220656
0.0666974
0.111781
0.157334
0.203369
0.249899
0.296934
0.344487
0.392568
0.44119
0.490364
0.540105
0.590423
0.641334
0.692852
0.74499
0.797765
0.851192
0.905286
0.960066
1.01555
1.07175
1.12869
1.1864
1.24488
1.30416
1.36427
1.42522
1.48705
1.54977
1.61341
1.67801
1.74358
1.81017
1.87779
1.94649
2.01629
2.08724
2.15938
2.23273
2.30735
2.38328
2.46057
2.53926
2.61941
2.70108
2.78431
2.86918
2.95573
0.0220085
0.0665828
0.111636
0.157171
0.203196
0.249719
0.29675
0.344298
0.392377
0.440997
0.49017
0.539909
0.590226
0.641137
0.692654
0.744792
0.797566
0.850992
0.905087
0.959866
1.01535
1.07155
1.12849
1.1862
1.24468
1.30396
1.36407
1.42502
1.48685
1.54957
1.61321
1.67781
1.74338
1.80997
1.87759
1.94629
2.01609
2.08704
2.15918
2.23253
2.30716
2.38309
2.46038
2.53907
2.61922
2.70089
2.78414
2.86902
2.95563
0.0220205
0.0666018
0.111655
0.157189
0.203211
0.249732
0.296761
0.344308
0.392385
0.441004
0.490176
0.539914
0.590231
0.641141
0.692657
0.744795
0.797569
0.850995
0.905089
0.959868
1.01535
1.07155
1.1285
1.1862
1.24468
1.30396
1.36407
1.42502
1.48685
1.54957
1.61322
1.67781
1.74338
1.80997
1.87759
1.94629
2.0161
2.08705
2.15918
2.23254
2.30716
2.38309
2.46038
2.53908
2.61923
2.7009
2.78415
2.86904
2.95565
0.0220408
0.0666429
0.111707
0.157246
0.203272
0.249794
0.296823
0.344371
0.392448
0.441066
0.490238
0.539976
0.590293
0.641203
0.692719
0.744857
0.797631
0.851056
0.90515
0.95993
1.01541
1.07161
1.12856
1.18626
1.24474
1.30402
1.36413
1.42509
1.48691
1.54963
1.61328
1.67787
1.74345
1.81003
1.87765
1.94635
2.01616
2.08711
2.15924
2.2326
2.30722
2.38315
2.46044
2.53914
2.61929
2.70096
2.78421
2.86909
2.95568
0.0220169
0.0666027
0.111663
0.157204
0.203231
0.249756
0.296787
0.344336
0.392414
0.441034
0.490206
0.539945
0.590262
0.641172
0.692688
0.744826
0.7976
0.851025
0.905119
0.959899
1.01538
1.07158
1.12853
1.18623
1.24471
1.30399
1.3641
1.42505
1.48688
1.5496
1.61325
1.67784
1.74341
1.81
1.87762
1.94632
2.01613
2.08708
2.15921
2.23257
2.30719
2.38312
2.46041
2.53911
2.61926
2.70093
2.78417
2.86905
2.95564
0.0220609
0.0666894
0.111772
0.157324
0.203359
0.249888
0.296923
0.344474
0.392555
0.441175
0.490349
0.540088
0.590406
0.641316
0.692833
0.74497
0.797744
0.85117
0.905264
0.960044
1.01553
1.07173
1.12867
1.18637
1.24485
1.30414
1.36425
1.4252
1.48702
1.54975
1.61339
1.67798
1.74356
1.81014
1.87777
1.94646
2.01627
2.08722
2.15936
2.23271
2.30733
2.38327
2.46055
2.53925
2.6194
2.70106
2.7843
2.86917
2.95572
0.0220286
0.0666326
0.111707
0.157259
0.203295
0.249826
0.296863
0.344417
0.392498
0.44112
0.490295
0.540035
0.590353
0.641264
0.692781
0.744919
0.797693
0.851119
0.905214
0.959993
1.01547
1.07168
1.12862
1.18632
1.2448
1.30409
1.36419
1.42515
1.48697
1.5497
1.61334
1.67793
1.74351
1.81009
1.87772
1.94641
2.01622
2.08717
2.1593
2.23266
2.30728
2.38321
2.4605
2.53919
2.61934
2.70101
2.78424
2.8691
2.95567
0.0220603
0.0666925
0.11178
0.157339
0.203379
0.249913
0.296952
0.344507
0.392589
0.441212
0.490388
0.540129
0.590448
0.641359
0.692876
0.745015
0.797789
0.851215
0.90531
0.960089
1.01557
1.07177
1.12872
1.18642
1.2449
1.30418
1.36429
1.42525
1.48707
1.54979
1.61344
1.67803
1.7436
1.81019
1.87781
1.94651
2.01632
2.08727
2.1594
2.23276
2.30738
2.38331
2.46059
2.53929
2.61943
2.70109
2.78432
2.86918
2.95572
0.0220329
0.0666422
0.111721
0.157276
0.203315
0.24985
0.296889
0.344445
0.392528
0.441152
0.490328
0.540069
0.590389
0.6413
0.692818
0.744957
0.797731
0.851158
0.905252
0.960032
1.01551
1.07172
1.12866
1.18636
1.24484
1.30413
1.36423
1.42519
1.48701
1.54973
1.61338
1.67797
1.74355
1.81013
1.87775
1.94645
2.01626
2.08721
2.15934
2.2327
2.30732
2.38325
2.46053
2.53923
2.61937
2.70103
2.78426
2.86912
2.95567
0.0220559
0.0666843
0.111771
0.157329
0.20337
0.249905
0.296945
0.344501
0.392585
0.441209
0.490385
0.540126
0.590446
0.641358
0.692876
0.745014
0.797789
0.851216
0.90531
0.96009
1.01557
1.07178
1.12872
1.18642
1.2449
1.30419
1.36429
1.42525
1.48707
1.54979
1.61344
1.67803
1.74361
1.81019
1.87781
1.94651
2.01632
2.08727
2.1594
2.23276
2.30738
2.38331
2.46059
2.53928
2.61943
2.70109
2.78431
2.86917
2.95571
0.0220352
0.0666455
0.111724
0.157279
0.203318
0.249852
0.296891
0.344447
0.392531
0.441155
0.490331
0.540072
0.590392
0.641304
0.692822
0.744961
0.797735
0.851162
0.905257
0.960036
1.01552
1.07172
1.12866
1.18637
1.24485
1.30413
1.36424
1.42519
1.48702
1.54974
1.61338
1.67798
1.74355
1.81014
1.87776
1.94646
2.01626
2.08721
2.15935
2.2327
2.30732
2.38325
2.46054
2.53923
2.61937
2.70103
2.78426
2.86912
2.95568
0.0220501
0.0666721
0.111755
0.15731
0.20335
0.249883
0.296922
0.344477
0.392561
0.441184
0.49036
0.540102
0.590421
0.641333
0.692851
0.74499
0.797765
0.851191
0.905286
0.960065
1.01555
1.07175
1.12869
1.1864
1.24488
1.30416
1.36427
1.42522
1.48705
1.54977
1.61341
1.67801
1.74358
1.81016
1.87779
1.94649
2.01629
2.08724
2.15938
2.23273
2.30735
2.38328
2.46057
2.53926
2.61941
2.70106
2.78429
2.86915
2.9557
0.0220372
0.0666474
0.111724
0.157277
0.203314
0.249846
0.296884
0.344439
0.392522
0.441145
0.49032
0.540061
0.590381
0.641292
0.69281
0.744948
0.797723
0.85115
0.905244
0.960024
1.01551
1.07171
1.12865
1.18635
1.24484
1.30412
1.36423
1.42518
1.48701
1.54973
1.61337
1.67797
1.74354
1.81012
1.87775
1.94644
2.01625
2.0872
2.15933
2.23269
2.30731
2.38324
2.46053
2.53922
2.61937
2.70103
2.78426
2.86912
2.95568
0.0220443
0.0666595
0.111738
0.15729
0.203326
0.249858
0.296895
0.344449
0.392531
0.441153
0.490328
0.540069
0.590388
0.641299
0.692817
0.744955
0.797729
0.851156
0.90525
0.96003
1.01551
1.07171
1.12866
1.18636
1.24484
1.30412
1.36423
1.42519
1.48701
1.54973
1.61338
1.67797
1.74355
1.81013
1.87775
1.94645
2.01626
2.08721
2.15934
2.2327
2.30732
2.38325
2.46054
2.53923
2.61938
2.70104
2.78427
2.86913
2.95569
0.0220392
0.0666492
0.111725
0.157275
0.20331
0.24984
0.296876
0.344429
0.39251
0.441132
0.490307
0.540047
0.590365
0.641276
0.692794
0.744932
0.797706
0.851132
0.905226
0.960006
1.01549
1.07169
1.12863
1.18634
1.24482
1.3041
1.36421
1.42516
1.48699
1.54971
1.61335
1.67795
1.74352
1.81011
1.87773
1.94643
2.01623
2.08718
2.15932
2.23267
2.3073
2.38323
2.46051
2.53921
2.61936
2.70102
2.78425
2.86912
2.95568
0.0220386
0.0666474
0.111721
0.15727
0.203304
0.249833
0.296868
0.34442
0.392501
0.441122
0.490297
0.540036
0.590354
0.641265
0.692782
0.74492
0.797694
0.85112
0.905214
0.959993
1.01548
1.07168
1.12862
1.18632
1.2448
1.30409
1.36419
1.42515
1.48697
1.5497
1.61334
1.67793
1.74351
1.81009
1.87772
1.94641
2.01622
2.08717
2.15931
2.23266
2.30728
2.38321
2.4605
2.5392
2.61935
2.70101
2.78425
2.86911
2.95568
0.0220413
0.0666513
0.111725
0.157273
0.203306
0.249834
0.296868
0.34442
0.3925
0.441121
0.490294
0.540034
0.590351
0.641262
0.692778
0.744916
0.79769
0.851116
0.90521
0.959989
1.01547
1.07167
1.12862
1.18632
1.2448
1.30408
1.36419
1.42514
1.48697
1.54969
1.61334
1.67793
1.7435
1.81009
1.87771
1.94641
2.01622
2.08717
2.1593
2.23266
2.30728
2.38321
2.4605
2.53919
2.61934
2.70101
2.78425
2.86912
2.95569
0.022032
0.066633
0.111702
0.157248
0.203279
0.249806
0.29684
0.344391
0.39247
0.441091
0.490264
0.540003
0.590321
0.641231
0.692748
0.744885
0.797659
0.851085
0.905179
0.959958
1.01544
1.07164
1.12859
1.18629
1.24477
1.30405
1.36416
1.42511
1.48694
1.54966
1.6133
1.6779
1.74347
1.81006
1.87768
1.94638
2.01619
2.08714
2.15927
2.23263
2.30725
2.38318
2.46047
2.53916
2.61932
2.70098
2.78422
2.86909
2.95567
0.0220423
0.0666519
0.111724
0.157271
0.203303
0.24983
0.296864
0.344415
0.392494
0.441114
0.490288
0.540027
0.590344
0.641254
0.692771
0.744909
0.797683
0.851108
0.905202
0.959981
1.01546
1.07167
1.12861
1.18631
1.24479
1.30408
1.36418
1.42514
1.48696
1.54968
1.61333
1.67792
1.7435
1.81008
1.8777
1.9464
2.01621
2.08716
2.15929
2.23265
2.30727
2.3832
2.46049
2.53919
2.61934
2.70101
2.78424
2.86912
2.95569
0.0220318
0.0666328
0.111702
0.157248
0.203279
0.249806
0.29684
0.344391
0.39247
0.441091
0.490264
0.540003
0.590321
0.641231
0.692748
0.744886
0.797659
0.851085
0.905179
0.959958
1.01544
1.07164
1.12859
1.18629
1.24477
1.30405
1.36416
1.42511
1.48694
1.54966
1.6133
1.6779
1.74347
1.81006
1.87768
1.94638
2.01619
2.08714
2.15927
2.23263
2.30725
2.38318
2.46047
2.53916
2.61932
2.70098
2.78422
2.86909
2.95567
0.0220412
0.0666512
0.111725
0.157273
0.203306
0.249834
0.296868
0.34442
0.3925
0.441121
0.490294
0.540034
0.590352
0.641262
0.692779
0.744917
0.797691
0.851116
0.90521
0.95999
1.01547
1.07167
1.12862
1.18632
1.2448
1.30408
1.36419
1.42514
1.48697
1.54969
1.61334
1.67793
1.7435
1.81009
1.87771
1.94641
2.01622
2.08717
2.1593
2.23266
2.30728
2.38321
2.4605
2.53919
2.61934
2.70101
2.78425
2.86912
2.95569
0.0220387
0.0666476
0.111722
0.157271
0.203304
0.249834
0.296869
0.344421
0.392502
0.441123
0.490297
0.540037
0.590355
0.641265
0.692782
0.74492
0.797694
0.85112
0.905215
0.959994
1.01548
1.07168
1.12862
1.18632
1.2448
1.30409
1.3642
1.42515
1.48697
1.5497
1.61334
1.67793
1.74351
1.81009
1.87772
1.94641
2.01622
2.08717
2.15931
2.23266
2.30728
2.38321
2.4605
2.5392
2.61935
2.70101
2.78425
2.86911
2.95568
0.0220393
0.0666495
0.111725
0.157275
0.20331
0.24984
0.296876
0.344429
0.392511
0.441133
0.490307
0.540047
0.590366
0.641277
0.692794
0.744932
0.797707
0.851133
0.905227
0.960007
1.01549
1.07169
1.12863
1.18634
1.24482
1.3041
1.36421
1.42516
1.48699
1.54971
1.61335
1.67795
1.74352
1.81011
1.87773
1.94643
2.01623
2.08718
2.15932
2.23267
2.3073
2.38323
2.46051
2.53921
2.61936
2.70102
2.78425
2.86912
2.95568
0.0220442
0.0666594
0.111738
0.15729
0.203326
0.249858
0.296895
0.344449
0.392531
0.441153
0.490329
0.540069
0.590388
0.641299
0.692817
0.744955
0.79773
0.851156
0.905251
0.96003
1.01551
1.07172
1.12866
1.18636
1.24484
1.30412
1.36423
1.42519
1.48701
1.54973
1.61338
1.67797
1.74355
1.81013
1.87775
1.94645
2.01626
2.08721
2.15934
2.2327
2.30732
2.38325
2.46054
2.53923
2.61938
2.70104
2.78427
2.86913
2.95569
0.022037
0.0666471
0.111724
0.157277
0.203314
0.249846
0.296884
0.344439
0.392521
0.441145
0.49032
0.540061
0.59038
0.641292
0.69281
0.744948
0.797723
0.851149
0.905244
0.960024
1.01551
1.07171
1.12865
1.18635
1.24484
1.30412
1.36423
1.42518
1.48701
1.54973
1.61337
1.67797
1.74354
1.81012
1.87775
1.94644
2.01625
2.0872
2.15933
2.23269
2.30731
2.38324
2.46053
2.53922
2.61937
2.70103
2.78426
2.86912
2.95568
0.02205
0.0666721
0.111755
0.157311
0.20335
0.249883
0.296922
0.344477
0.392561
0.441184
0.49036
0.540101
0.590421
0.641333
0.692851
0.744989
0.797764
0.851191
0.905285
0.960065
1.01555
1.07175
1.12869
1.18639
1.24488
1.30416
1.36427
1.42522
1.48705
1.54977
1.61341
1.67801
1.74358
1.81016
1.87779
1.94649
2.01629
2.08724
2.15938
2.23273
2.30735
2.38328
2.46057
2.53926
2.61941
2.70106
2.78429
2.86915
2.9557
0.0220353
0.0666457
0.111724
0.157279
0.203318
0.249852
0.296891
0.344447
0.392531
0.441154
0.490331
0.540072
0.590392
0.641304
0.692822
0.74496
0.797735
0.851162
0.905256
0.960036
1.01552
1.07172
1.12866
1.18637
1.24485
1.30413
1.36424
1.42519
1.48702
1.54974
1.61338
1.67798
1.74355
1.81014
1.87776
1.94646
2.01626
2.08721
2.15935
2.2327
2.30732
2.38325
2.46054
2.53923
2.61937
2.70103
2.78426
2.86912
2.95568
0.0220559
0.0666843
0.111771
0.157329
0.20337
0.249905
0.296945
0.344501
0.392585
0.441208
0.490385
0.540126
0.590446
0.641358
0.692876
0.745014
0.797789
0.851216
0.90531
0.96009
1.01557
1.07178
1.12872
1.18642
1.2449
1.30419
1.36429
1.42525
1.48707
1.54979
1.61344
1.67803
1.74361
1.81019
1.87781
1.94651
2.01632
2.08727
2.1594
2.23276
2.30738
2.38331
2.46059
2.53928
2.61943
2.70109
2.78431
2.86917
2.95571
0.0220328
0.0666422
0.111721
0.157276
0.203315
0.24985
0.296889
0.344445
0.392528
0.441152
0.490328
0.540069
0.590389
0.6413
0.692818
0.744957
0.797731
0.851158
0.905252
0.960032
1.01551
1.07172
1.12866
1.18636
1.24484
1.30413
1.36423
1.42519
1.48701
1.54973
1.61338
1.67797
1.74355
1.81013
1.87776
1.94645
2.01626
2.08721
2.15934
2.2327
2.30732
2.38325
2.46054
2.53923
2.61937
2.70103
2.78426
2.86912
2.95567
0.0220603
0.0666925
0.11178
0.157339
0.203379
0.249913
0.296952
0.344507
0.39259
0.441213
0.490388
0.540129
0.590448
0.641359
0.692877
0.745015
0.79779
0.851216
0.90531
0.96009
1.01557
1.07177
1.12872
1.18642
1.2449
1.30418
1.36429
1.42525
1.48707
1.54979
1.61344
1.67803
1.74361
1.81019
1.87781
1.94651
2.01632
2.08727
2.1594
2.23276
2.30738
2.38331
2.46059
2.53929
2.61943
2.70109
2.78432
2.86918
2.95572
0.0220285
0.0666325
0.111707
0.157259
0.203295
0.249827
0.296863
0.344417
0.392499
0.441121
0.490295
0.540035
0.590354
0.641264
0.692782
0.74492
0.797694
0.85112
0.905214
0.959994
1.01548
1.07168
1.12862
1.18632
1.2448
1.30409
1.3642
1.42515
1.48697
1.5497
1.61334
1.67793
1.74351
1.81009
1.87772
1.94641
2.01622
2.08717
2.15931
2.23266
2.30728
2.38321
2.4605
2.53919
2.61934
2.70101
2.78424
2.8691
2.95567
0.022061
0.0666896
0.111772
0.157325
0.203359
0.249889
0.296923
0.344475
0.392555
0.441176
0.490349
0.540088
0.590406
0.641317
0.692833
0.744971
0.797745
0.851171
0.905265
0.960045
1.01553
1.07173
1.12867
1.18637
1.24486
1.30414
1.36425
1.4252
1.48703
1.54975
1.61339
1.67799
1.74356
1.81014
1.87777
1.94647
2.01627
2.08722
2.15936
2.23271
2.30734
2.38327
2.46055
2.53925
2.6194
2.70107
2.7843
2.86917
2.95572
0.022017
0.066603
0.111664
0.157204
0.203232
0.249756
0.296787
0.344337
0.392415
0.441034
0.490207
0.539945
0.590263
0.641173
0.692689
0.744827
0.7976
0.851026
0.90512
0.9599
1.01538
1.07158
1.12853
1.18623
1.24471
1.30399
1.3641
1.42506
1.48688
1.5496
1.61325
1.67784
1.74341
1.81
1.87762
1.94632
2.01613
2.08708
2.15921
2.23257
2.30719
2.38312
2.46041
2.53911
2.61926
2.70093
2.78417
2.86905
2.95564
0.0220407
0.0666427
0.111707
0.157246
0.203272
0.249794
0.296823
0.344371
0.392448
0.441067
0.490239
0.539977
0.590294
0.641203
0.69272
0.744857
0.797631
0.851057
0.905151
0.95993
1.01541
1.07162
1.12856
1.18626
1.24474
1.30402
1.36413
1.42509
1.48691
1.54963
1.61328
1.67787
1.74345
1.81003
1.87765
1.94635
2.01616
2.08711
2.15924
2.2326
2.30722
2.38315
2.46044
2.53914
2.61929
2.70096
2.78421
2.86909
2.95568
0.0220205
0.0666018
0.111655
0.157189
0.203212
0.249732
0.296761
0.344308
0.392385
0.441004
0.490176
0.539914
0.590231
0.641141
0.692658
0.744795
0.797569
0.850995
0.905089
0.959869
1.01535
1.07155
1.1285
1.1862
1.24468
1.30396
1.36407
1.42502
1.48685
1.54957
1.61322
1.67781
1.74338
1.80997
1.87759
1.94629
2.0161
2.08705
2.15918
2.23254
2.30716
2.38309
2.46038
2.53908
2.61923
2.7009
2.78415
2.86904
2.95565
0.0220086
0.0665828
0.111636
0.157171
0.203196
0.249719
0.29675
0.344299
0.392377
0.440997
0.49017
0.539909
0.590227
0.641137
0.692654
0.744792
0.797566
0.850992
0.905087
0.959866
1.01535
1.07155
1.12849
1.1862
1.24468
1.30396
1.36407
1.42502
1.48685
1.54957
1.61321
1.67781
1.74338
1.80997
1.87759
1.94629
2.01609
2.08704
2.15918
2.23253
2.30716
2.38309
2.46038
2.53907
2.61922
2.70089
2.78414
2.86902
2.95563
0.0220656
0.0666974
0.111781
0.157334
0.203369
0.249899
0.296934
0.344487
0.392568
0.44119
0.490364
0.540104
0.590423
0.641334
0.692852
0.74499
0.797765
0.851191
0.905286
0.960066
1.01555
1.07175
1.12869
1.1864
1.24488
1.30416
1.36427
1.42522
1.48705
1.54977
1.61341
1.67801
1.74358
1.81017
1.87779
1.94649
2.01629
2.08724
2.15938
2.23273
2.30735
2.38328
2.46057
2.53926
2.61941
2.70108
2.78431
2.86918
2.95573
0.0220232
0.0666255
0.111702
0.157256
0.203296
0.24983
0.29687
0.344425
0.392509
0.441133
0.490309
0.540051
0.590371
0.641283
0.692801
0.74494
0.797715
0.851142
0.905237
0.960017
1.0155
1.0717
1.12865
1.18635
1.24483
1.30411
1.36422
1.42518
1.487
1.54972
1.61337
1.67796
1.74353
1.81012
1.87774
1.94644
2.01624
2.08719
2.15933
2.23268
2.3073
2.38323
2.46052
2.53921
2.61935
2.70101
2.78424
2.8691
2.95566
0.0220793
0.0667332
0.111835
0.157403
0.20345
0.24999
0.297033
0.344592
0.392678
0.441304
0.490481
0.540224
0.590545
0.641457
0.692976
0.745116
0.797891
0.851318
0.905414
0.960194
1.01568
1.07188
1.12882
1.18653
1.24501
1.30429
1.3644
1.42535
1.48718
1.5499
1.61354
1.67814
1.74371
1.8103
1.87792
1.94662
2.01642
2.08737
2.1595
2.23286
2.30748
2.38341
2.46069
2.53938
2.61952
2.70118
2.7844
2.86924
2.95575
0.0220268
0.0666384
0.111724
0.157287
0.203334
0.249874
0.296918
0.344478
0.392565
0.441192
0.49037
0.540114
0.590435
0.641348
0.692867
0.745007
0.797783
0.85121
0.905306
0.960086
1.01557
1.07177
1.12872
1.18642
1.2449
1.30418
1.36429
1.42525
1.48707
1.54979
1.61344
1.67803
1.7436
1.81019
1.87781
1.94651
2.01631
2.08726
2.1594
2.23275
2.30737
2.3833
2.46058
2.53927
2.61941
2.70106
2.78428
2.86912
2.95567
0.0220846
0.0667448
0.111851
0.157421
0.203471
0.250012
0.297057
0.344617
0.392704
0.44133
0.490509
0.540252
0.590573
0.641487
0.693006
0.745146
0.797922
0.851349
0.905445
0.960226
1.01571
1.07191
1.12886
1.18656
1.24504
1.30432
1.36443
1.42539
1.48721
1.54993
1.61358
1.67817
1.74374
1.81033
1.87795
1.94665
2.01645
2.0874
2.15953
2.23289
2.30751
2.38344
2.46072
2.53941
2.61955
2.7012
2.78442
2.86925
2.95576
0.0220224
0.0666271
0.111707
0.157265
0.203307
0.249844
0.296885
0.344443
0.392529
0.441154
0.490332
0.540075
0.590396
0.641309
0.692828
0.744968
0.797744
0.851171
0.905267
0.960048
1.01553
1.07173
1.12868
1.18638
1.24486
1.30415
1.36425
1.42521
1.48703
1.54975
1.6134
1.67799
1.74357
1.81015
1.87777
1.94647
2.01628
2.08722
2.15936
2.23271
2.30733
2.38326
2.46054
2.53923
2.61937
2.70103
2.78425
2.8691
2.95566
0.0220784
0.0667234
0.111815
0.157372
0.203411
0.249944
0.296982
0.344537
0.392621
0.441245
0.490421
0.540163
0.590484
0.641397
0.692916
0.745055
0.797831
0.851259
0.905354
0.960135
1.01562
1.07182
1.12877
1.18647
1.24495
1.30423
1.36434
1.4253
1.48712
1.54984
1.61349
1.67808
1.74365
1.81024
1.87786
1.94656
2.01636
2.08731
2.15944
2.2328
2.30742
2.38335
2.46063
2.53932
2.61947
2.70112
2.78435
2.86921
2.95575
0.021999
0.0665645
0.111614
0.15715
0.203176
0.249701
0.296734
0.344286
0.392367
0.44099
0.490165
0.539907
0.590227
0.641139
0.692658
0.744798
0.797573
0.851001
0.905097
0.959877
1.01536
1.07156
1.12851
1.18621
1.24469
1.30398
1.36408
1.42504
1.48686
1.54959
1.61323
1.67782
1.7434
1.80998
1.8776
1.9463
2.0161
2.08705
2.15919
2.23254
2.30716
2.38309
2.46037
2.53906
2.61921
2.70088
2.78412
2.869
2.95561
0.0220139
0.0665899
0.111642
0.157178
0.203203
0.249727
0.296759
0.34431
0.392391
0.441013
0.490188
0.539929
0.590249
0.641162
0.69268
0.74482
0.797596
0.851024
0.905119
0.9599
1.01538
1.07159
1.12853
1.18623
1.24472
1.304
1.36411
1.42506
1.48689
1.54961
1.61325
1.67785
1.74342
1.81
1.87763
1.94632
2.01613
2.08708
2.15921
2.23256
2.30718
2.38311
2.4604
2.53909
2.61924
2.7009
2.78414
2.86903
2.95564
0.0220547
0.0666729
0.111748
0.157295
0.203328
0.249856
0.296892
0.344444
0.392526
0.441149
0.490325
0.540067
0.590387
0.6413
0.692819
0.744958
0.797734
0.851162
0.905258
0.960038
1.01552
1.07173
1.12867
1.18637
1.24485
1.30414
1.36425
1.4252
1.48703
1.54975
1.61339
1.67799
1.74356
1.81014
1.87776
1.94646
2.01627
2.08722
2.15935
2.2327
2.30732
2.38325
2.46053
2.53922
2.61937
2.70103
2.78427
2.86914
2.95571
0.0220123
0.066602
0.111671
0.157221
0.203257
0.24979
0.296829
0.344385
0.392469
0.441093
0.49027
0.540013
0.590333
0.641246
0.692766
0.744906
0.797682
0.851109
0.905205
0.959986
1.01547
1.07167
1.12862
1.18632
1.2448
1.30409
1.36419
1.42515
1.48697
1.54969
1.61334
1.67793
1.74351
1.81009
1.87771
1.94641
2.01621
2.08716
2.15929
2.23265
2.30727
2.3832
2.46048
2.53917
2.61931
2.70097
2.7842
2.86906
2.95564
0.0220893
0.0667519
0.111857
0.157427
0.203475
0.250014
0.297058
0.344617
0.392703
0.441329
0.490507
0.540251
0.590572
0.641485
0.693005
0.745145
0.797921
0.851349
0.905445
0.960226
1.01571
1.07191
1.12886
1.18656
1.24504
1.30433
1.36443
1.42539
1.48721
1.54993
1.61358
1.67817
1.74375
1.81033
1.87795
1.94665
2.01645
2.0874
2.15953
2.23289
2.30751
2.38343
2.46072
2.5394
2.61955
2.7012
2.78442
2.86926
2.95577
0.0220237
0.0666345
0.111721
0.157285
0.203333
0.249873
0.296918
0.344479
0.392566
0.441193
0.490371
0.540115
0.590437
0.64135
0.69287
0.74501
0.797786
0.851214
0.90531
0.960091
1.01557
1.07178
1.12872
1.18642
1.24491
1.30419
1.3643
1.42525
1.48708
1.5498
1.61344
1.67804
1.74361
1.81019
1.87782
1.94651
2.01632
2.08727
2.1594
2.23275
2.30737
2.3833
2.46058
2.53927
2.61941
2.70106
2.78428
2.86912
2.95566
0.0220938
0.0667636
0.111875
0.157448
0.203499
0.250041
0.297086
0.344646
0.392733
0.44136
0.490538
0.540281
0.590603
0.641516
0.693036
0.745176
0.797952
0.85138
0.905476
0.960257
1.01574
1.07194
1.12889
1.18659
1.24507
1.30436
1.36446
1.42542
1.48724
1.54997
1.61361
1.6782
1.74378
1.81036
1.87798
1.94668
2.01648
2.08743
2.15957
2.23292
2.30754
2.38347
2.46075
2.53943
2.61958
2.70123
2.78444
2.86928
2.95578
0.0220189
0.0666209
0.1117
0.157256
0.203298
0.249834
0.296875
0.344432
0.392517
0.441142
0.49032
0.540063
0.590384
0.641297
0.692816
0.744956
0.797732
0.85116
0.905256
0.960036
1.01552
1.07172
1.12867
1.18637
1.24485
1.30414
1.36424
1.4252
1.48702
1.54975
1.61339
1.67798
1.74356
1.81014
1.87776
1.94646
2.01626
2.08721
2.15934
2.2327
2.30732
2.38325
2.46053
2.53922
2.61936
2.70102
2.78424
2.8691
2.95565
0.022081
0.0667256
0.111814
0.157369
0.203406
0.249936
0.296973
0.344526
0.392609
0.441232
0.490408
0.54015
0.59047
0.641382
0.692901
0.745041
0.797817
0.851245
0.905341
0.960121
1.0156
1.07181
1.12875
1.18645
1.24494
1.30422
1.36433
1.42528
1.48711
1.54983
1.61347
1.67807
1.74364
1.81022
1.87785
1.94654
2.01635
2.0873
2.15943
2.23278
2.3074
2.38333
2.46062
2.53931
2.61945
2.70111
2.78435
2.86921
2.95575
0.021988
0.0665374
0.111576
0.157103
0.203124
0.249645
0.296676
0.344226
0.392306
0.440928
0.490103
0.539844
0.590163
0.641076
0.692594
0.744734
0.79751
0.850937
0.905033
0.959814
1.0153
1.0715
1.12844
1.18615
1.24463
1.30391
1.36402
1.42498
1.4868
1.54952
1.61317
1.67776
1.74333
1.80992
1.87754
1.94624
2.01604
2.08699
2.15912
2.23248
2.3071
2.38302
2.46031
2.539
2.61915
2.70082
2.78406
2.86896
2.95559
0.0219879
0.0665372
0.111576
0.157103
0.203124
0.249645
0.296676
0.344226
0.392305
0.440927
0.490102
0.539842
0.590162
0.641074
0.692593
0.744732
0.797508
0.850935
0.905031
0.959812
1.0153
1.0715
1.12844
1.18614
1.24463
1.30391
1.36402
1.42497
1.4868
1.54952
1.61316
1.67776
1.74333
1.80991
1.87754
1.94623
2.01604
2.08699
2.15912
2.23248
2.30709
2.38302
2.46031
2.539
2.61915
2.70082
2.78406
2.86896
2.95559
0.0220809
0.0667254
0.111814
0.157369
0.203405
0.249936
0.296972
0.344526
0.392608
0.441231
0.490407
0.540149
0.590469
0.641381
0.692899
0.745039
0.797815
0.851243
0.905339
0.960119
1.0156
1.07181
1.12875
1.18645
1.24494
1.30422
1.36433
1.42528
1.48711
1.54983
1.61347
1.67807
1.74364
1.81022
1.87785
1.94654
2.01635
2.0873
2.15943
2.23278
2.3074
2.38333
2.46061
2.5393
2.61945
2.70111
2.78435
2.86921
2.95575
0.022019
0.0666211
0.1117
0.157256
0.203298
0.249834
0.296875
0.344432
0.392517
0.441142
0.490319
0.540062
0.590382
0.641295
0.692814
0.744955
0.797731
0.851159
0.905254
0.960035
1.01552
1.07172
1.12867
1.18637
1.24485
1.30414
1.36424
1.4252
1.48702
1.54974
1.61339
1.67798
1.74356
1.81014
1.87776