/*--------------------------------*- C++ -*----------------------------------*\
  =========                 |
  \\      /  F ield         | OpenFOAM: The Open Source CFD Toolbox
   \\    /   O peration     | Website:  https://openfoam.org
    \\  /    A nd           | Version:  6
     \\/     M anipulation  |
\*---------------------------------------------------------------------------*/
FoamFile
{
    version     2.0;
    format      ascii;
    class       volScalarField;
    location    "120";
    object      Cx;
}
// * * * * * * * * * * * * * * * * * * * * * * * * * * * * * * * * * * * * * //

dimensions      [0 1 0 0 0 0 0];

internalField   nonuniform List<scalar> 
13524
(
-0.711301
-0.704006
-0.696711
-0.689416
-0.68212
-0.674825
-0.66753
-0.660235
-0.652939
-0.645644
-0.638349
-0.631054
-0.623758
-0.616463
-0.609168
-0.601873
-0.594577
-0.587282
-0.579987
-0.572692
-0.565396
-0.558101
-0.550806
-0.543511
-0.536215
-0.52892
-0.521625
-0.51433
-0.507035
-0.499739
-0.492444
-0.485149
-0.477854
-0.470559
-0.463263
-0.455968
-0.448673
-0.441378
-0.434083
-0.426787
-0.419492
-0.412197
-0.404902
-0.397607
-0.390312
-0.383017
-0.375722
-0.368426
-0.361131
-0.726894
-0.719439
-0.711983
-0.704528
-0.697073
-0.689618
-0.682163
-0.674707
-0.667252
-0.659797
-0.652342
-0.644887
-0.637432
-0.629976
-0.622521
-0.615066
-0.607611
-0.600156
-0.592701
-0.585245
-0.57779
-0.570335
-0.56288
-0.555425
-0.54797
-0.540515
-0.533059
-0.525604
-0.518149
-0.510694
-0.503239
-0.495784
-0.488329
-0.480874
-0.473419
-0.465963
-0.458508
-0.451053
-0.443598
-0.436143
-0.428688
-0.421233
-0.413778
-0.406323
-0.398868
-0.391413
-0.383958
-0.376503
-0.369048
-0.742172
-0.73456
-0.726949
-0.719337
-0.711725
-0.704113
-0.696501
-0.688889
-0.681277
-0.673665
-0.666054
-0.658442
-0.65083
-0.643218
-0.635606
-0.627994
-0.620382
-0.61277
-0.605159
-0.597547
-0.589935
-0.582323
-0.574711
-0.567099
-0.559488
-0.551876
-0.544264
-0.536652
-0.52904
-0.521428
-0.513817
-0.506205
-0.498593
-0.490981
-0.483369
-0.475758
-0.468146
-0.460534
-0.452922
-0.44531
-0.437699
-0.430087
-0.422475
-0.414863
-0.407252
-0.39964
-0.392028
-0.384416
-0.376805
-0.757016
-0.749252
-0.741488
-0.733724
-0.725959
-0.718195
-0.710431
-0.702667
-0.694903
-0.687139
-0.679375
-0.671611
-0.663847
-0.656082
-0.648318
-0.640554
-0.63279
-0.625026
-0.617262
-0.609498
-0.601734
-0.59397
-0.586206
-0.578441
-0.570677
-0.562913
-0.555149
-0.547385
-0.539621
-0.531857
-0.524093
-0.516329
-0.508565
-0.500801
-0.493037
-0.485273
-0.477509
-0.469745
-0.461981
-0.454217
-0.446453
-0.438689
-0.430925
-0.423161
-0.415397
-0.407633
-0.399869
-0.392105
-0.384341
-0.771534
-0.763621
-0.755708
-0.747795
-0.739882
-0.731969
-0.724056
-0.716143
-0.70823
-0.700317
-0.692404
-0.684491
-0.676578
-0.668665
-0.660752
-0.652839
-0.644926
-0.637013
-0.6291
-0.621187
-0.613274
-0.605361
-0.597448
-0.589535
-0.581622
-0.573709
-0.565796
-0.557883
-0.54997
-0.542057
-0.534144
-0.526231
-0.518318
-0.510405
-0.502492
-0.494579
-0.486666
-0.478754
-0.470841
-0.462928
-0.455015
-0.447102
-0.439189
-0.431276
-0.423363
-0.41545
-0.407538
-0.399625
-0.391712
-0.785599
-0.777541
-0.769484
-0.761427
-0.75337
-0.745312
-0.737255
-0.729198
-0.72114
-0.713083
-0.705026
-0.696969
-0.688911
-0.680854
-0.672797
-0.66474
-0.656682
-0.648625
-0.640568
-0.632511
-0.624453
-0.616396
-0.608339
-0.600282
-0.592224
-0.584167
-0.57611
-0.568053
-0.559996
-0.551938
-0.543881
-0.535824
-0.527767
-0.51971
-0.511652
-0.503595
-0.495538
-0.487481
-0.479424
-0.471367
-0.463309
-0.455252
-0.447195
-0.439138
-0.431081
-0.423024
-0.414967
-0.40691
-0.398852
-0.799325
-0.791127
-0.782929
-0.774731
-0.766533
-0.758335
-0.750137
-0.741939
-0.733741
-0.725543
-0.717345
-0.709147
-0.700949
-0.692751
-0.684553
-0.676355
-0.668156
-0.659958
-0.65176
-0.643562
-0.635364
-0.627166
-0.618968
-0.61077
-0.602572
-0.594374
-0.586176
-0.577978
-0.56978
-0.561582
-0.553384
-0.545186
-0.536988
-0.52879
-0.520592
-0.512394
-0.504196
-0.495999
-0.487801
-0.479603
-0.471405
-0.463207
-0.455009
-0.446811
-0.438613
-0.430415
-0.422217
-0.414019
-0.405822
-0.812581
-0.804247
-0.795913
-0.787579
-0.779245
-0.770911
-0.762577
-0.754243
-0.745909
-0.737575
-0.729241
-0.720907
-0.712573
-0.704239
-0.695905
-0.687571
-0.679237
-0.670903
-0.662569
-0.654235
-0.645901
-0.637567
-0.629233
-0.620899
-0.612565
-0.604231
-0.595897
-0.587564
-0.57923
-0.570896
-0.562562
-0.554228
-0.545894
-0.53756
-0.529226
-0.520892
-0.512558
-0.504224
-0.49589
-0.487556
-0.479223
-0.470889
-0.462555
-0.454221
-0.445887
-0.437553
-0.429219
-0.420886
-0.412552
-0.825455
-0.816989
-0.808523
-0.800057
-0.791591
-0.783125
-0.774659
-0.766193
-0.757727
-0.749261
-0.740795
-0.732329
-0.723863
-0.715397
-0.706931
-0.698465
-0.689998
-0.681532
-0.673066
-0.6646
-0.656134
-0.647668
-0.639202
-0.630736
-0.62227
-0.613804
-0.605338
-0.596872
-0.588406
-0.57994
-0.571474
-0.563008
-0.554542
-0.546077
-0.537611
-0.529145
-0.520679
-0.512213
-0.503747
-0.495281
-0.486815
-0.478349
-0.469883
-0.461417
-0.452951
-0.444485
-0.43602
-0.427554
-0.419088
-0.837876
-0.829282
-0.820689
-0.812096
-0.803502
-0.794909
-0.786315
-0.777722
-0.769128
-0.760535
-0.751942
-0.743348
-0.734755
-0.726161
-0.717568
-0.708974
-0.700381
-0.691788
-0.683194
-0.674601
-0.666007
-0.657414
-0.648821
-0.640227
-0.631634
-0.62304
-0.614447
-0.605854
-0.59726
-0.588667
-0.580073
-0.57148
-0.562887
-0.554293
-0.5457
-0.537107
-0.528513
-0.51992
-0.511327
-0.502733
-0.49414
-0.485547
-0.476953
-0.46836
-0.459767
-0.451174
-0.44258
-0.433987
-0.425394
-0.849811
-0.841095
-0.83238
-0.823664
-0.814948
-0.806232
-0.797516
-0.7888
-0.780085
-0.771369
-0.762653
-0.753937
-0.745221
-0.736505
-0.727789
-0.719074
-0.710358
-0.701642
-0.692926
-0.68421
-0.675495
-0.666779
-0.658063
-0.649347
-0.640631
-0.631915
-0.6232
-0.614484
-0.605768
-0.597052
-0.588337
-0.579621
-0.570905
-0.562189
-0.553473
-0.544758
-0.536042
-0.527326
-0.51861
-0.509895
-0.501179
-0.492463
-0.483748
-0.475032
-0.466316
-0.457601
-0.448885
-0.440169
-0.431454
-0.861372
-0.852538
-0.843703
-0.834869
-0.826034
-0.8172
-0.808366
-0.799531
-0.790697
-0.781862
-0.773028
-0.764194
-0.755359
-0.746525
-0.73769
-0.728856
-0.720022
-0.711187
-0.702353
-0.693518
-0.684684
-0.67585
-0.667015
-0.658181
-0.649346
-0.640512
-0.631678
-0.622843
-0.614009
-0.605175
-0.59634
-0.587506
-0.578672
-0.569837
-0.561003
-0.552169
-0.543334
-0.5345
-0.525666
-0.516831
-0.507997
-0.499163
-0.490329
-0.481494
-0.47266
-0.463826
-0.454992
-0.446157
-0.437323
-0.872435
-0.863487
-0.854539
-0.845591
-0.836644
-0.827696
-0.818748
-0.8098
-0.800852
-0.791904
-0.782956
-0.774008
-0.765061
-0.756113
-0.747165
-0.738217
-0.729269
-0.720321
-0.711373
-0.702425
-0.693478
-0.68453
-0.675582
-0.666634
-0.657686
-0.648738
-0.639791
-0.630843
-0.621895
-0.612947
-0.603999
-0.595052
-0.586104
-0.577156
-0.568208
-0.55926
-0.550313
-0.541365
-0.532417
-0.523469
-0.514521
-0.505574
-0.496626
-0.487678
-0.478731
-0.469783
-0.460835
-0.451887
-0.44294
-0.88311
-0.874052
-0.864995
-0.855937
-0.84688
-0.837823
-0.828765
-0.819708
-0.810651
-0.801593
-0.792536
-0.783478
-0.774421
-0.765364
-0.756306
-0.747249
-0.738192
-0.729134
-0.720077
-0.71102
-0.701962
-0.692905
-0.683848
-0.67479
-0.665733
-0.656676
-0.647619
-0.638561
-0.629504
-0.620447
-0.611389
-0.602332
-0.593275
-0.584217
-0.57516
-0.566103
-0.557046
-0.547988
-0.538931
-0.529874
-0.520817
-0.51176
-0.502702
-0.493645
-0.484588
-0.475531
-0.466474
-0.457416
-0.448359
-0.893276
-0.884114
-0.874952
-0.865791
-0.856629
-0.847467
-0.838306
-0.829144
-0.819983
-0.810821
-0.801659
-0.792498
-0.783336
-0.774174
-0.765013
-0.755851
-0.74669
-0.737528
-0.728366
-0.719205
-0.710043
-0.700882
-0.69172
-0.682558
-0.673397
-0.664235
-0.655074
-0.645912
-0.636751
-0.627589
-0.618427
-0.609266
-0.600104
-0.590943
-0.581781
-0.57262
-0.563458
-0.554297
-0.545135
-0.535974
-0.526812
-0.517651
-0.508489
-0.499328
-0.490166
-0.481005
-0.471843
-0.462682
-0.453521
-0.903038
-0.893777
-0.884515
-0.875253
-0.865991
-0.856729
-0.847468
-0.838206
-0.828944
-0.819682
-0.810421
-0.801159
-0.791897
-0.782635
-0.773374
-0.764112
-0.75485
-0.745589
-0.736327
-0.727065
-0.717803
-0.708542
-0.69928
-0.690018
-0.680756
-0.671495
-0.662233
-0.652971
-0.64371
-0.634448
-0.625186
-0.615925
-0.606663
-0.597401
-0.58814
-0.578878
-0.569616
-0.560355
-0.551093
-0.541831
-0.53257
-0.523308
-0.514047
-0.504785
-0.495523
-0.486262
-0.477
-0.467739
-0.458477
-0.912285
-0.902928
-0.893571
-0.884215
-0.874858
-0.865502
-0.856145
-0.846788
-0.837432
-0.828075
-0.818719
-0.809362
-0.800005
-0.790649
-0.781292
-0.771936
-0.762579
-0.753223
-0.743866
-0.73451
-0.725153
-0.715796
-0.70644
-0.697083
-0.687727
-0.67837
-0.669014
-0.659657
-0.650301
-0.640944
-0.631588
-0.622231
-0.612875
-0.603518
-0.594162
-0.584805
-0.575449
-0.566092
-0.556736
-0.547379
-0.538023
-0.528666
-0.51931
-0.509953
-0.500597
-0.491241
-0.481884
-0.472528
-0.463172
-0.921112
-0.911665
-0.902218
-0.892771
-0.883324
-0.873876
-0.864429
-0.854982
-0.845535
-0.836088
-0.826641
-0.817194
-0.807747
-0.7983
-0.788852
-0.779405
-0.769958
-0.760511
-0.751064
-0.741617
-0.73217
-0.722723
-0.713276
-0.703829
-0.694381
-0.684934
-0.675487
-0.66604
-0.656593
-0.647146
-0.637699
-0.628252
-0.618805
-0.609358
-0.599911
-0.590464
-0.581017
-0.57157
-0.562123
-0.552676
-0.543229
-0.533782
-0.524335
-0.514888
-0.505441
-0.495994
-0.486547
-0.4771
-0.467653
-0.929417
-0.919885
-0.910353
-0.90082
-0.891288
-0.881756
-0.872223
-0.862691
-0.853159
-0.843626
-0.834094
-0.824562
-0.81503
-0.805497
-0.795965
-0.786433
-0.7769
-0.767368
-0.757836
-0.748304
-0.738771
-0.729239
-0.719707
-0.710175
-0.700642
-0.69111
-0.681578
-0.672046
-0.662513
-0.652981
-0.643449
-0.633917
-0.624384
-0.614852
-0.60532
-0.595788
-0.586256
-0.576723
-0.567191
-0.557659
-0.548127
-0.538595
-0.529063
-0.51953
-0.509998
-0.500466
-0.490934
-0.481402
-0.47187
-0.93723
-0.927618
-0.918005
-0.908393
-0.89878
-0.889168
-0.879556
-0.869943
-0.860331
-0.850718
-0.841106
-0.831493
-0.821881
-0.812269
-0.802656
-0.793044
-0.783431
-0.773819
-0.764207
-0.754594
-0.744982
-0.735369
-0.725757
-0.716145
-0.706532
-0.69692
-0.687307
-0.677695
-0.668083
-0.65847
-0.648858
-0.639246
-0.629633
-0.620021
-0.610409
-0.600796
-0.591184
-0.581572
-0.571959
-0.562347
-0.552735
-0.543122
-0.53351
-0.523898
-0.514286
-0.504673
-0.495061
-0.485449
-0.475837
-0.944576
-0.934888
-0.9252
-0.915512
-0.905825
-0.896137
-0.886449
-0.876761
-0.867073
-0.857386
-0.847698
-0.83801
-0.828322
-0.818635
-0.808947
-0.799259
-0.789571
-0.779884
-0.770196
-0.760508
-0.75082
-0.741133
-0.731445
-0.721757
-0.712069
-0.702382
-0.692694
-0.683006
-0.673319
-0.663631
-0.653943
-0.644256
-0.634568
-0.62488
-0.615192
-0.605505
-0.595817
-0.58613
-0.576442
-0.566754
-0.557067
-0.547379
-0.537691
-0.528004
-0.518316
-0.508629
-0.498941
-0.489253
-0.479566
-0.951395
-0.941637
-0.931879
-0.922122
-0.912364
-0.902606
-0.892848
-0.883091
-0.873333
-0.863575
-0.853818
-0.84406
-0.834302
-0.824545
-0.814787
-0.805029
-0.795271
-0.785514
-0.775756
-0.765998
-0.756241
-0.746483
-0.736725
-0.726968
-0.71721
-0.707452
-0.697695
-0.687937
-0.678179
-0.668422
-0.658664
-0.648907
-0.639149
-0.629391
-0.619634
-0.609876
-0.600119
-0.590361
-0.580603
-0.570846
-0.561088
-0.551331
-0.541573
-0.531816
-0.522058
-0.5123
-0.502543
-0.492785
-0.483028
-0.957763
-0.94794
-0.938117
-0.928294
-0.918471
-0.908647
-0.898824
-0.889001
-0.879178
-0.869355
-0.859532
-0.849709
-0.839886
-0.830063
-0.82024
-0.810417
-0.800594
-0.790771
-0.780948
-0.771125
-0.761302
-0.751479
-0.741656
-0.731833
-0.72201
-0.712188
-0.702365
-0.692542
-0.682719
-0.672896
-0.663073
-0.65325
-0.643427
-0.633604
-0.623781
-0.613958
-0.604135
-0.594312
-0.584489
-0.574667
-0.564844
-0.555021
-0.545198
-0.535375
-0.525552
-0.515729
-0.505907
-0.496084
-0.486261
-0.963602
-0.95372
-0.943837
-0.933954
-0.924071
-0.914188
-0.904305
-0.894422
-0.884539
-0.874656
-0.864773
-0.85489
-0.845007
-0.835125
-0.825242
-0.815359
-0.805476
-0.795593
-0.78571
-0.775827
-0.765944
-0.756061
-0.746179
-0.736296
-0.726413
-0.71653
-0.706647
-0.696764
-0.686881
-0.676999
-0.667116
-0.657233
-0.64735
-0.637467
-0.627584
-0.617702
-0.607819
-0.597936
-0.588053
-0.57817
-0.568288
-0.558405
-0.548522
-0.538639
-0.528757
-0.518874
-0.508991
-0.499109
-0.489226
-0.968977
-0.959039
-0.949101
-0.939163
-0.929224
-0.919286
-0.909348
-0.89941
-0.889472
-0.879534
-0.869596
-0.859658
-0.84972
-0.839782
-0.829844
-0.819906
-0.809968
-0.80003
-0.790092
-0.780154
-0.770216
-0.760278
-0.75034
-0.740402
-0.730464
-0.720526
-0.710588
-0.70065
-0.690712
-0.680774
-0.670836
-0.660898
-0.65096
-0.641023
-0.631085
-0.621147
-0.611209
-0.601271
-0.591333
-0.581395
-0.571457
-0.561519
-0.551581
-0.541644
-0.531706
-0.521768
-0.51183
-0.501892
-0.491954
-0.973823
-0.963835
-0.953848
-0.94386
-0.933872
-0.923884
-0.913897
-0.903909
-0.893921
-0.883933
-0.873946
-0.863958
-0.85397
-0.843982
-0.833995
-0.824007
-0.814019
-0.804032
-0.794044
-0.784056
-0.774068
-0.764081
-0.754093
-0.744105
-0.734118
-0.72413
-0.714142
-0.704155
-0.694167
-0.684179
-0.674192
-0.664204
-0.654216
-0.644229
-0.634241
-0.624253
-0.614266
-0.604278
-0.594291
-0.584303
-0.574315
-0.564328
-0.55434
-0.544353
-0.534365
-0.524378
-0.51439
-0.504402
-0.494415
-0.97819
-0.968157
-0.958125
-0.948092
-0.93806
-0.928027
-0.917995
-0.907962
-0.89793
-0.887897
-0.877864
-0.867832
-0.857799
-0.847767
-0.837734
-0.827702
-0.817669
-0.807637
-0.797604
-0.787572
-0.777539
-0.767507
-0.757474
-0.747442
-0.737409
-0.727377
-0.717345
-0.707312
-0.69728
-0.687247
-0.677215
-0.667182
-0.65715
-0.647117
-0.637085
-0.627053
-0.61702
-0.606988
-0.596955
-0.586923
-0.576891
-0.566858
-0.556826
-0.546794
-0.536761
-0.526729
-0.516697
-0.506664
-0.496632
-0.982031
-0.971959
-0.961887
-0.951815
-0.941743
-0.931671
-0.921599
-0.911527
-0.901455
-0.891384
-0.881312
-0.87124
-0.861168
-0.851096
-0.841024
-0.830952
-0.82088
-0.810808
-0.800736
-0.790665
-0.780593
-0.770521
-0.760449
-0.750377
-0.740305
-0.730233
-0.720161
-0.71009
-0.700018
-0.689946
-0.679874
-0.669802
-0.65973
-0.649659
-0.639587
-0.629515
-0.619443
-0.609371
-0.5993
-0.589228
-0.579156
-0.569084
-0.559012
-0.548941
-0.538869
-0.528797
-0.518726
-0.508654
-0.498582
-0.985379
-0.975273
-0.965167
-0.95506
-0.944954
-0.934848
-0.924741
-0.914635
-0.904529
-0.894423
-0.884316
-0.87421
-0.864104
-0.853998
-0.843891
-0.833785
-0.823679
-0.813573
-0.803466
-0.79336
-0.783254
-0.773148
-0.763042
-0.752935
-0.742829
-0.732723
-0.722617
-0.712511
-0.702404
-0.692298
-0.682192
-0.672086
-0.66198
-0.651873
-0.641767
-0.631661
-0.621555
-0.611449
-0.601343
-0.591237
-0.581131
-0.571024
-0.560918
-0.550812
-0.540706
-0.5306
-0.520494
-0.510388
-0.500282
-0.988206
-0.97807
-0.967935
-0.9578
-0.947665
-0.937529
-0.927394
-0.917259
-0.907124
-0.896988
-0.886853
-0.876718
-0.866583
-0.856447
-0.846312
-0.836177
-0.826042
-0.815906
-0.805771
-0.795636
-0.785501
-0.775366
-0.76523
-0.755095
-0.74496
-0.734825
-0.72469
-0.714554
-0.704419
-0.694284
-0.684149
-0.674014
-0.663879
-0.653743
-0.643608
-0.633473
-0.623338
-0.613203
-0.603068
-0.592933
-0.582798
-0.572662
-0.562527
-0.552392
-0.542257
-0.532122
-0.521987
-0.511852
-0.501717
-0.990527
-0.980368
-0.970209
-0.96005
-0.949891
-0.939732
-0.929573
-0.919413
-0.909254
-0.899095
-0.888936
-0.878777
-0.868618
-0.858459
-0.8483
-0.838141
-0.827982
-0.817823
-0.807664
-0.797505
-0.787346
-0.777187
-0.767028
-0.756869
-0.74671
-0.736551
-0.726392
-0.716233
-0.706074
-0.695915
-0.685756
-0.675597
-0.665438
-0.655279
-0.64512
-0.634961
-0.624802
-0.614643
-0.604484
-0.594325
-0.584167
-0.574008
-0.563849
-0.55369
-0.543531
-0.533372
-0.523213
-0.513054
-0.502896
-0.992332
-0.982155
-0.971977
-0.9618
-0.951622
-0.941444
-0.931267
-0.921089
-0.910912
-0.900734
-0.890556
-0.880379
-0.870201
-0.860024
-0.849846
-0.839669
-0.829491
-0.819314
-0.809136
-0.798959
-0.788781
-0.778603
-0.768426
-0.758248
-0.748071
-0.737893
-0.727716
-0.717538
-0.707361
-0.697183
-0.687006
-0.676828
-0.666651
-0.656473
-0.646296
-0.636118
-0.625941
-0.615764
-0.605586
-0.595409
-0.585231
-0.575054
-0.564876
-0.554699
-0.544522
-0.534344
-0.524167
-0.51399
-0.503812
-0.993621
-0.983431
-0.97324
-0.963049
-0.952858
-0.942667
-0.932477
-0.922286
-0.912095
-0.901904
-0.891713
-0.881523
-0.871332
-0.861141
-0.85095
-0.84076
-0.830569
-0.820378
-0.810187
-0.799996
-0.789806
-0.779615
-0.769424
-0.759233
-0.749043
-0.738852
-0.728661
-0.71847
-0.70828
-0.698089
-0.687898
-0.677708
-0.667517
-0.657326
-0.647135
-0.636945
-0.626754
-0.616563
-0.606373
-0.596182
-0.585991
-0.575801
-0.56561
-0.55542
-0.545229
-0.535038
-0.524848
-0.514657
-0.504467
-0.994402
-0.984203
-0.974004
-0.963805
-0.953606
-0.943408
-0.933209
-0.92301
-0.912811
-0.902612
-0.892414
-0.882215
-0.872016
-0.861817
-0.851619
-0.84142
-0.831221
-0.821022
-0.810823
-0.800625
-0.790426
-0.780227
-0.770028
-0.75983
-0.749631
-0.739432
-0.729233
-0.719035
-0.708836
-0.698637
-0.688439
-0.67824
-0.668041
-0.657842
-0.647644
-0.637445
-0.627246
-0.617048
-0.606849
-0.59665
-0.586452
-0.576253
-0.566054
-0.555856
-0.545657
-0.535459
-0.52526
-0.515061
-0.504863
-0.994654
-0.984453
-0.974251
-0.96405
-0.953849
-0.943647
-0.933446
-0.923244
-0.913043
-0.902842
-0.89264
-0.882439
-0.872238
-0.862036
-0.851835
-0.841633
-0.831432
-0.821231
-0.811029
-0.800828
-0.790627
-0.780425
-0.770224
-0.760023
-0.749821
-0.73962
-0.729419
-0.719217
-0.709016
-0.698815
-0.688613
-0.678412
-0.668211
-0.658009
-0.647808
-0.637607
-0.627406
-0.617204
-0.607003
-0.596802
-0.586601
-0.576399
-0.566198
-0.555997
-0.545796
-0.535595
-0.525393
-0.515192
-0.504991
-0.994402
-0.984203
-0.974004
-0.963805
-0.953607
-0.943408
-0.933209
-0.92301
-0.912811
-0.902613
-0.892414
-0.882215
-0.872016
-0.861817
-0.851619
-0.84142
-0.831221
-0.821022
-0.810823
-0.800625
-0.790426
-0.780227
-0.770028
-0.75983
-0.749631
-0.739432
-0.729233
-0.719035
-0.708836
-0.698637
-0.688439
-0.67824
-0.668041
-0.657842
-0.647644
-0.637445
-0.627246
-0.617048
-0.606849
-0.59665
-0.586452
-0.576253
-0.566054
-0.555856
-0.545657
-0.535459
-0.52526
-0.515061
-0.504863
-0.993621
-0.983431
-0.97324
-0.963049
-0.952858
-0.942667
-0.932477
-0.922286
-0.912095
-0.901904
-0.891713
-0.881523
-0.871332
-0.861141
-0.85095
-0.84076
-0.830569
-0.820378
-0.810187
-0.799996
-0.789806
-0.779615
-0.769424
-0.759233
-0.749043
-0.738852
-0.728661
-0.71847
-0.70828
-0.698089
-0.687898
-0.677708
-0.667517
-0.657326
-0.647136
-0.636945
-0.626754
-0.616563
-0.606373
-0.596182
-0.585991
-0.575801
-0.56561
-0.55542
-0.545229
-0.535038
-0.524848
-0.514657
-0.504467
-0.992332
-0.982155
-0.971977
-0.9618
-0.951622
-0.941444
-0.931267
-0.921089
-0.910912
-0.900734
-0.890557
-0.880379
-0.870201
-0.860024
-0.849846
-0.839669
-0.829491
-0.819314
-0.809136
-0.798959
-0.788781
-0.778603
-0.768426
-0.758248
-0.748071
-0.737893
-0.727716
-0.717538
-0.707361
-0.697183
-0.687006
-0.676828
-0.666651
-0.656473
-0.646296
-0.636118
-0.625941
-0.615764
-0.605586
-0.595409
-0.585231
-0.575054
-0.564876
-0.554699
-0.544522
-0.534344
-0.524167
-0.51399
-0.503812
-0.990527
-0.980368
-0.970209
-0.96005
-0.949891
-0.939732
-0.929573
-0.919413
-0.909254
-0.899095
-0.888936
-0.878777
-0.868618
-0.858459
-0.8483
-0.838141
-0.827982
-0.817823
-0.807664
-0.797505
-0.787346
-0.777187
-0.767028
-0.756869
-0.74671
-0.736551
-0.726392
-0.716233
-0.706074
-0.695915
-0.685756
-0.675597
-0.665438
-0.655279
-0.64512
-0.634961
-0.624802
-0.614643
-0.604484
-0.594325
-0.584167
-0.574008
-0.563849
-0.55369
-0.543531
-0.533372
-0.523213
-0.513054
-0.502896
-0.988206
-0.97807
-0.967935
-0.9578
-0.947665
-0.937529
-0.927394
-0.917259
-0.907124
-0.896988
-0.886853
-0.876718
-0.866583
-0.856447
-0.846312
-0.836177
-0.826042
-0.815906
-0.805771
-0.795636
-0.785501
-0.775366
-0.76523
-0.755095
-0.74496
-0.734825
-0.72469
-0.714554
-0.704419
-0.694284
-0.684149
-0.674014
-0.663879
-0.653743
-0.643608
-0.633473
-0.623338
-0.613203
-0.603068
-0.592933
-0.582798
-0.572662
-0.562527
-0.552392
-0.542257
-0.532122
-0.521987
-0.511852
-0.501717
-0.985379
-0.975273
-0.965167
-0.95506
-0.944954
-0.934848
-0.924741
-0.914635
-0.904529
-0.894423
-0.884316
-0.87421
-0.864104
-0.853998
-0.843891
-0.833785
-0.823679
-0.813573
-0.803466
-0.79336
-0.783254
-0.773148
-0.763042
-0.752935
-0.742829
-0.732723
-0.722617
-0.712511
-0.702404
-0.692298
-0.682192
-0.672086
-0.66198
-0.651874
-0.641767
-0.631661
-0.621555
-0.611449
-0.601343
-0.591237
-0.581131
-0.571024
-0.560918
-0.550812
-0.540706
-0.5306
-0.520494
-0.510388
-0.500282
-0.982031
-0.971959
-0.961887
-0.951815
-0.941743
-0.931671
-0.921599
-0.911527
-0.901456
-0.891384
-0.881312
-0.87124
-0.861168
-0.851096
-0.841024
-0.830952
-0.82088
-0.810808
-0.800736
-0.790665
-0.780593
-0.770521
-0.760449
-0.750377
-0.740305
-0.730233
-0.720161
-0.71009
-0.700018
-0.689946
-0.679874
-0.669802
-0.65973
-0.649659
-0.639587
-0.629515
-0.619443
-0.609371
-0.5993
-0.589228
-0.579156
-0.569084
-0.559012
-0.548941
-0.538869
-0.528797
-0.518726
-0.508654
-0.498582
-0.97819
-0.968157
-0.958125
-0.948092
-0.93806
-0.928027
-0.917995
-0.907962
-0.89793
-0.887897
-0.877865
-0.867832
-0.857799
-0.847767
-0.837734
-0.827702
-0.817669
-0.807637
-0.797604
-0.787572
-0.777539
-0.767507
-0.757474
-0.747442
-0.73741
-0.727377
-0.717345
-0.707312
-0.69728
-0.687247
-0.677215
-0.667182
-0.65715
-0.647117
-0.637085
-0.627053
-0.61702
-0.606988
-0.596955
-0.586923
-0.576891
-0.566858
-0.556826
-0.546794
-0.536761
-0.526729
-0.516697
-0.506664
-0.496632
-0.973823
-0.963835
-0.953848
-0.94386
-0.933872
-0.923884
-0.913897
-0.903909
-0.893921
-0.883933
-0.873946
-0.863958
-0.85397
-0.843982
-0.833995
-0.824007
-0.814019
-0.804032
-0.794044
-0.784056
-0.774068
-0.764081
-0.754093
-0.744105
-0.734118
-0.72413
-0.714142
-0.704155
-0.694167
-0.684179
-0.674192
-0.664204
-0.654216
-0.644229
-0.634241
-0.624253
-0.614266
-0.604278
-0.594291
-0.584303
-0.574315
-0.564328
-0.55434
-0.544353
-0.534365
-0.524378
-0.51439
-0.504402
-0.494415
-0.968977
-0.959039
-0.949101
-0.939163
-0.929225
-0.919286
-0.909348
-0.89941
-0.889472
-0.879534
-0.869596
-0.859658
-0.84972
-0.839782
-0.829844
-0.819906
-0.809968
-0.80003
-0.790092
-0.780154
-0.770216
-0.760278
-0.75034
-0.740402
-0.730464
-0.720526
-0.710588
-0.70065
-0.690712
-0.680774
-0.670836
-0.660898
-0.650961
-0.641023
-0.631085
-0.621147
-0.611209
-0.601271
-0.591333
-0.581395
-0.571457
-0.561519
-0.551581
-0.541644
-0.531706
-0.521768
-0.51183
-0.501892
-0.491954
-0.963603
-0.95372
-0.943837
-0.933954
-0.924071
-0.914188
-0.904305
-0.894422
-0.884539
-0.874656
-0.864773
-0.85489
-0.845008
-0.835125
-0.825242
-0.815359
-0.805476
-0.795593
-0.78571
-0.775827
-0.765944
-0.756062
-0.746179
-0.736296
-0.726413
-0.71653
-0.706647
-0.696764
-0.686881
-0.676999
-0.667116
-0.657233
-0.64735
-0.637467
-0.627585
-0.617702
-0.607819
-0.597936
-0.588053
-0.578171
-0.568288
-0.558405
-0.548522
-0.538639
-0.528757
-0.518874
-0.508991
-0.499109
-0.489226
-0.957763
-0.94794
-0.938117
-0.928294
-0.918471
-0.908648
-0.898825
-0.889002
-0.879178
-0.869355
-0.859532
-0.849709
-0.839886
-0.830063
-0.82024
-0.810417
-0.800594
-0.790771
-0.780948
-0.771125
-0.761302
-0.751479
-0.741656
-0.731834
-0.722011
-0.712188
-0.702365
-0.692542
-0.682719
-0.672896
-0.663073
-0.65325
-0.643427
-0.633604
-0.623781
-0.613958
-0.604135
-0.594312
-0.584489
-0.574667
-0.564844
-0.555021
-0.545198
-0.535375
-0.525552
-0.515729
-0.505907
-0.496084
-0.486261
-0.951395
-0.941637
-0.931879
-0.922122
-0.912364
-0.902606
-0.892849
-0.883091
-0.873333
-0.863575
-0.853818
-0.84406
-0.834302
-0.824545
-0.814787
-0.805029
-0.795272
-0.785514
-0.775756
-0.765998
-0.756241
-0.746483
-0.736725
-0.726968
-0.71721
-0.707452
-0.697695
-0.687937
-0.67818
-0.668422
-0.658664
-0.648907
-0.639149
-0.629391
-0.619634
-0.609876
-0.600119
-0.590361
-0.580603
-0.570846
-0.561088
-0.551331
-0.541573
-0.531816
-0.522058
-0.512301
-0.502543
-0.492786
-0.483028
-0.944576
-0.934888
-0.9252
-0.915512
-0.905825
-0.896137
-0.886449
-0.876761
-0.867074
-0.857386
-0.847698
-0.83801
-0.828322
-0.818635
-0.808947
-0.799259
-0.789571
-0.779884
-0.770196
-0.760508
-0.75082
-0.741133
-0.731445
-0.721757
-0.71207
-0.702382
-0.692694
-0.683006
-0.673319
-0.663631
-0.653943
-0.644256
-0.634568
-0.62488
-0.615193
-0.605505
-0.595817
-0.58613
-0.576442
-0.566754
-0.557067
-0.547379
-0.537691
-0.528004
-0.518316
-0.508629
-0.498941
-0.489253
-0.479566
-0.93723
-0.927618
-0.918005
-0.908393
-0.898781
-0.889168
-0.879556
-0.869943
-0.860331
-0.850718
-0.841106
-0.831494
-0.821881
-0.812269
-0.802656
-0.793044
-0.783431
-0.773819
-0.764207
-0.754594
-0.744982
-0.735369
-0.725757
-0.716145
-0.706532
-0.69692
-0.687307
-0.677695
-0.668083
-0.65847
-0.648858
-0.639246
-0.629633
-0.620021
-0.610409
-0.600796
-0.591184
-0.581572
-0.571959
-0.562347
-0.552735
-0.543122
-0.53351
-0.523898
-0.514286
-0.504673
-0.495061
-0.485449
-0.475837
-0.929417
-0.919885
-0.910353
-0.90082
-0.891288
-0.881756
-0.872223
-0.862691
-0.853159
-0.843627
-0.834094
-0.824562
-0.81503
-0.805497
-0.795965
-0.786433
-0.776901
-0.767368
-0.757836
-0.748304
-0.738771
-0.729239
-0.719707
-0.710175
-0.700642
-0.69111
-0.681578
-0.672046
-0.662513
-0.652981
-0.643449
-0.633917
-0.624384
-0.614852
-0.60532
-0.595788
-0.586256
-0.576723
-0.567191
-0.557659
-0.548127
-0.538595
-0.529063
-0.51953
-0.509998
-0.500466
-0.490934
-0.481402
-0.47187
-0.921112
-0.911665
-0.902218
-0.892771
-0.883324
-0.873877
-0.864429
-0.854982
-0.845535
-0.836088
-0.826641
-0.817194
-0.807747
-0.7983
-0.788852
-0.779405
-0.769958
-0.760511
-0.751064
-0.741617
-0.73217
-0.722723
-0.713276
-0.703829
-0.694382
-0.684934
-0.675487
-0.66604
-0.656593
-0.647146
-0.637699
-0.628252
-0.618805
-0.609358
-0.599911
-0.590464
-0.581017
-0.57157
-0.562123
-0.552676
-0.543229
-0.533782
-0.524335
-0.514888
-0.505441
-0.495994
-0.486547
-0.4771
-0.467653
-0.912285
-0.902928
-0.893571
-0.884215
-0.874858
-0.865502
-0.856145
-0.846788
-0.837432
-0.828075
-0.818719
-0.809362
-0.800006
-0.790649
-0.781292
-0.771936
-0.762579
-0.753223
-0.743866
-0.73451
-0.725153
-0.715796
-0.70644
-0.697083
-0.687727
-0.67837
-0.669014
-0.659657
-0.650301
-0.640944
-0.631588
-0.622231
-0.612875
-0.603518
-0.594162
-0.584805
-0.575449
-0.566092
-0.556736
-0.547379
-0.538023
-0.528666
-0.51931
-0.509954
-0.500597
-0.491241
-0.481884
-0.472528
-0.463172
-0.903038
-0.893777
-0.884515
-0.875253
-0.865991
-0.85673
-0.847468
-0.838206
-0.828944
-0.819683
-0.810421
-0.801159
-0.791897
-0.782636
-0.773374
-0.764112
-0.75485
-0.745589
-0.736327
-0.727065
-0.717803
-0.708542
-0.69928
-0.690018
-0.680757
-0.671495
-0.662233
-0.652971
-0.64371
-0.634448
-0.625186
-0.615925
-0.606663
-0.597401
-0.58814
-0.578878
-0.569616
-0.560355
-0.551093
-0.541831
-0.53257
-0.523308
-0.514047
-0.504785
-0.495523
-0.486262
-0.477
-0.467739
-0.458477
-0.893276
-0.884114
-0.874952
-0.865791
-0.856629
-0.847467
-0.838306
-0.829144
-0.819983
-0.810821
-0.801659
-0.792498
-0.783336
-0.774174
-0.765013
-0.755851
-0.74669
-0.737528
-0.728366
-0.719205
-0.710043
-0.700882
-0.69172
-0.682558
-0.673397
-0.664235
-0.655074
-0.645912
-0.636751
-0.627589
-0.618428
-0.609266
-0.600104
-0.590943
-0.581781
-0.57262
-0.563458
-0.554297
-0.545135
-0.535974
-0.526812
-0.517651
-0.508489
-0.499328
-0.490166
-0.481005
-0.471843
-0.462682
-0.453521
-0.88311
-0.874052
-0.864995
-0.855937
-0.84688
-0.837823
-0.828765
-0.819708
-0.810651
-0.801593
-0.792536
-0.783479
-0.774421
-0.765364
-0.756307
-0.747249
-0.738192
-0.729135
-0.720077
-0.71102
-0.701963
-0.692905
-0.683848
-0.674791
-0.665733
-0.656676
-0.647619
-0.638561
-0.629504
-0.620447
-0.611389
-0.602332
-0.593275
-0.584218
-0.57516
-0.566103
-0.557046
-0.547989
-0.538931
-0.529874
-0.520817
-0.51176
-0.502702
-0.493645
-0.484588
-0.475531
-0.466474
-0.457416
-0.448359
-0.872435
-0.863487
-0.854539
-0.845592
-0.836644
-0.827696
-0.818748
-0.8098
-0.800852
-0.791904
-0.782956
-0.774008
-0.765061
-0.756113
-0.747165
-0.738217
-0.729269
-0.720321
-0.711373
-0.702426
-0.693478
-0.68453
-0.675582
-0.666634
-0.657686
-0.648739
-0.639791
-0.630843
-0.621895
-0.612947
-0.603999
-0.595052
-0.586104
-0.577156
-0.568208
-0.55926
-0.550313
-0.541365
-0.532417
-0.523469
-0.514522
-0.505574
-0.496626
-0.487678
-0.478731
-0.469783
-0.460835
-0.451888
-0.44294
-0.861372
-0.852538
-0.843703
-0.834869
-0.826035
-0.8172
-0.808366
-0.799531
-0.790697
-0.781862
-0.773028
-0.764194
-0.755359
-0.746525
-0.73769
-0.728856
-0.720022
-0.711187
-0.702353
-0.693518
-0.684684
-0.67585
-0.667015
-0.658181
-0.649347
-0.640512
-0.631678
-0.622843
-0.614009
-0.605175
-0.59634
-0.587506
-0.578672
-0.569837
-0.561003
-0.552169
-0.543334
-0.5345
-0.525666
-0.516831
-0.507997
-0.499163
-0.490329
-0.481494
-0.47266
-0.463826
-0.454992
-0.446157
-0.437323
-0.849811
-0.841096
-0.83238
-0.823664
-0.814948
-0.806232
-0.797516
-0.7888
-0.780085
-0.771369
-0.762653
-0.753937
-0.745221
-0.736505
-0.72779
-0.719074
-0.710358
-0.701642
-0.692926
-0.68421
-0.675495
-0.666779
-0.658063
-0.649347
-0.640631
-0.631916
-0.6232
-0.614484
-0.605768
-0.597052
-0.588337
-0.579621
-0.570905
-0.562189
-0.553474
-0.544758
-0.536042
-0.527326
-0.518611
-0.509895
-0.501179
-0.492463
-0.483748
-0.475032
-0.466316
-0.457601
-0.448885
-0.440169
-0.431454
-0.837876
-0.829283
-0.820689
-0.812096
-0.803502
-0.794909
-0.786315
-0.777722
-0.769128
-0.760535
-0.751942
-0.743348
-0.734755
-0.726161
-0.717568
-0.708974
-0.700381
-0.691788
-0.683194
-0.674601
-0.666007
-0.657414
-0.648821
-0.640227
-0.631634
-0.62304
-0.614447
-0.605854
-0.59726
-0.588667
-0.580074
-0.57148
-0.562887
-0.554293
-0.5457
-0.537107
-0.528513
-0.51992
-0.511327
-0.502733
-0.49414
-0.485547
-0.476954
-0.46836
-0.459767
-0.451174
-0.44258
-0.433987
-0.425394
-0.825455
-0.816989
-0.808523
-0.800057
-0.791591
-0.783125
-0.774659
-0.766193
-0.757727
-0.749261
-0.740795
-0.732329
-0.723863
-0.715397
-0.706931
-0.698465
-0.689999
-0.681533
-0.673067
-0.664601
-0.656135
-0.647668
-0.639202
-0.630736