/*--------------------------------*- C++ -*----------------------------------*\
  =========                 |
  \\      /  F ield         | OpenFOAM: The Open Source CFD Toolbox
   \\    /   O peration     | Website:  https://openfoam.org
    \\  /    A nd           | Version:  6
     \\/     M anipulation  |
\*---------------------------------------------------------------------------*/
FoamFile
{
    version     2.0;
    format      ascii;
    class       volScalarField;
    location    "0";
    object      Cz;
}
// * * * * * * * * * * * * * * * * * * * * * * * * * * * * * * * * * * * * * //

dimensions      [0 1 0 0 0 0 0];

internalField   nonuniform List<scalar> 
13524
(
6.75422e-19
0
-7.13773e-19
0
0
-7.11932e-19
2.23177e-18
0
-2.28002e-18
0
8.01045e-19
0
-1.56466e-18
0
0
-1.24579e-18
0
0
4.38402e-19
0
0
0
0
8.83942e-19
0
0
0
0
0
1.4663e-18
1.51192e-18
-2.02907e-18
2.05931e-18
1.58e-18
0
0
1.11933e-18
5.68515e-19
1.13106e-18
0
1.7422e-18
-1.79689e-18
-2.44596e-18
-6.28452e-19
0
1.30295e-18
6.63657e-19
0
0
6.99516e-19
-1.41314e-18
7.86165e-19
-4.83001e-20
-7.52619e-19
0
0
-2.27961e-18
0
7.92417e-19
-8.00923e-19
0
-4.8312e-20
1.65529e-18
-1.23132e-18
0
0
2.59913e-18
1.29084e-18
0
-9.947e-19
-9.09159e-19
9.20563e-19
0
1.44062e-18
0
-5.08852e-19
1.44948e-18
1.56632e-18
0
0
0
5.027e-19
-1.57983e-18
0
2.20403e-18
0
0
0
0
0
0
0
-1.25671e-18
-6.63842e-19
0
-6.87751e-19
0
0
-1.39899e-18
1.46139e-18
7.37844e-19
1.44198e-18
0
7.60211e-19
-7.19689e-19
0
7.84078e-19
-2.32887e-18
4.83091e-20
0
-8.18505e-19
1.65524e-18
4.42636e-19
1.74135e-18
0
8.66351e-19
0
0
0
-4.78729e-19
-1.84107e-18
-9.32244e-19
1.39224e-18
0
-9.69337e-19
0
0
0
0
0
5.51034e-19
0
0
2.77914e-18
0
1.18518e-18
-1.75686e-18
1.73687e-18
1.24199e-18
0
0
0
0
0
2.65413e-18
7.00394e-19
0
0
0
0
7.45164e-19
7.52618e-19
1.47216e-18
7.68015e-19
-7.75969e-19
7.35795e-19
-8.40724e-19
-8.00922e-19
8.09624e-19
0
8.27646e-19
0
0
0
-8.66377e-19
1.29084e-18
0
-8.98049e-19
2.67915e-18
0
4.41971e-19
0
5.02497e-19
0
-1.54616e-18
0
-5.29026e-19
0
5.43488e-19
1.0054e-18
0
1.70066e-18
0
0
0
0
0
0
-1.89346e-18
-1.23493e-18
0
6.63841e-19
0
-6.8775e-19
0
0
6.99488e-19
7.30691e-19
0
-7.45136e-19
-7.5259e-19
7.11903e-19
0
0
0
0
-8.00892e-19
4.83106e-20
-7.70187e-19
-8.27615e-19
2.55916e-18
2.58785e-18
-1.30862e-18
9.14664e-19
-4.62479e-19
1.30662e-18
-8.4969e-19
-1.81825e-18
4.36099e-19
0
-4.47966e-19
0
0
2.01313e-18
-2.51376e-18
-1.00967e-18
1.5117e-18
-3.65923e-18
-5.5103e-19
5.10473e-19
0
-1.67714e-18
-1.70284e-18
-2.27362e-18
0
0
-1.24198e-18
-1.31063e-18
-1.23488e-18
7.00904e-19
0
-6.27152e-19
0
0
1.37873e-18
0
-1.46143e-18
-7.37864e-19
0
0
0
1.53603e-18
-4.83051e-20
0
7.44107e-19
-1.55353e-18
0
1.63706e-18
0
1.27963e-18
0
1.26035e-18
0
1.38748e-18
4.67772e-19
8.49723e-19
0
0
0
-1.39228e-18
-5.02497e-19
0
9.82431e-19
5.22107e-19
1.49039e-18
-1.02395e-18
0
2.05914e-18
0
0
0
0
-1.72946e-18
-1.20352e-18
0
6.21012e-19
1.2623e-18
0
-1.90925e-18
0
0
-1.3271e-18
1.35243e-18
0
0
4.82977e-20
0
-1.44199e-18
-1.5052e-18
0
-7.19693e-19
0
-4.83064e-20
1.6331e-18
-8.00903e-19
-2.3805e-18
0
0
-4.42638e-19
-2.09215e-18
4.04e-19
8.18036e-19
0
-4.67762e-19
8.98027e-19
1.81827e-18
-9.2054e-19
0
0
0
1.42985e-18
0
-5.22096e-19
1.00969e-18
0
1.0386e-18
1.55641e-18
0
5.66874e-19
0
-5.35381e-19
1.72942e-18
-1.20349e-18
0
0
6.31137e-19
-1.87654e-18
-6.52529e-19
1.32765e-18
1.3511e-18
6.39339e-19
-1.3524e-18
2.09232e-18
0
0
2.26189e-18
1.44202e-18
-1.45693e-18
-7.6023e-19
-1.53602e-18
0
0
7.92413e-19
0
8.09621e-19
7.70214e-19
8.27643e-19
0
0
8.08016e-19
3.60707e-19
-8.76665e-19
8.87219e-19
4.73185e-19
0
2.76167e-18
4.90299e-19
0
0
-5.08849e-19
-1.03077e-18
-1.99174e-18
1.49039e-18
0
1.03862e-18
0
1.11769e-18
-5.66886e-19
-1.10201e-18
-2.23829e-18
0
-1.15515e-18
6.11219e-19
0
5.82773e-19
0
6.04159e-19
-1.32768e-18
0
2.01485e-18
0
0
6.99512e-19
1.41313e-18
-2.16529e-18
7.45161e-19
-7.52615e-19
0
2.30404e-18
-2.3279e-18
-2.30399e-18
8.40721e-19
0
0
-9.6624e-20
0
4.42646e-19
1.29397e-18
0
-2.19009e-18
1.75333e-18
4.19448e-19
-8.98045e-19
9.09154e-19
0
0
-1.88859e-18
-1.91331e-18
1.93872e-18
-2.0132e-18
-5.22106e-19
1.49039e-18
0
1.58211e-18
-4.83502e-20
0
0
-1.10201e-18
-1.7029e-18
0
0
0
1.76629e-18
-1.21392e-18
6.90033e-19
6.52542e-19
6.63839e-19
-6.75565e-19
0
-1.40082e-18
0
0
0
0
0
-1.45691e-18
-7.11919e-19
-7.197e-19
7.75957e-19
0
0
0
0
1.58872e-18
8.27633e-19
2.06826e-18
-7.98212e-19
0
2.19007e-18
-8.76655e-19
0
1.37121e-18
-1.33955e-18
0
8.83927e-19
0
-2.36745e-18
-1.9387e-18
-5.15378e-19
0
1.00969e-18
0
1.53374e-18
0
2.13864e-18
0
0
0
-6.40963e-19
-1.2035e-18
1.22242e-18
0
0
1.28329e-18
0
0
-1.30272e-18
2.65417e-18
7.00404e-19
0
6.75416e-19
7.30713e-19
0
-7.45158e-19
1.45692e-18
0
-7.6801e-19
1.50362e-18
4.83064e-20
-7.92411e-19
0
0
8.18524e-19
-8.2764e-19
0
-8.46536e-19
-8.56332e-19
0
0
-4.6777e-19
4.24859e-19
0
4.36113e-19
-1.37423e-18
1.39227e-18
4.54159e-19
-5.08848e-19
1.44947e-18
-9.95867e-19
0
0
1.08697e-18
5.51046e-19
0
-2.17082e-18
-5.75183e-19
-1.75126e-18
-1.18521e-18
0
1.22243e-18
0
1.21392e-18
-1.33168e-18
1.30508e-18
-2.55857e-18
0
-6.3935e-19
1.40082e-18
2.80594e-18
0
1.41308e-18
-8.34436e-19
0
4.83013e-20
1.52041e-18
1.53597e-18
7.7594e-19
0
-1.53647e-18
0
-7.61283e-19
-4.8312e-20
-8.27615e-19
1.23127e-18
0
1.2603e-18
0
1.29079e-18
1.72606e-18
4.7317e-19
-9.09124e-19
0
4.90283e-19
8.95932e-19
-1.4591e-18
4.60496e-19
0
0
0
-5.3613e-19
0
0
1.02095e-18
-1.65225e-18
1.05362e-18
5.35374e-19
0
6.01736e-19
0
-1.24198e-18
0
-6.41632e-19
1.30504e-18
-1.94306e-18
0
6.87725e-19
7.00389e-19
0
-6.99507e-19
-7.3071e-19
0
0
0
0
0
0
0
0
0
0
-1.68535e-18
0
-1.32793e-18
0
1.76097e-18
0
-4.6249e-19
2.61331e-18
-4.73182e-19
0
-4.36111e-19
9.32261e-19
0
-5.02492e-19
-5.08846e-19
-4.83387e-20
1.99173e-18
2.0194e-18
-1.02394e-18
5.43482e-19
-5.51044e-19
0
0
4.83581e-20
-1.1675e-18
0
-1.70852e-18
-6.11214e-19
1.24201e-18
-6.31145e-19
6.41648e-19
-1.90923e-18
1.32767e-18
1.4479e-18
4.83947e-20
0
-7.13583e-19
0
1.41308e-18
0
0
-4.83013e-20
7.60201e-19
0
0
0
-8.4069e-19
0
0
0
8.2761e-19
-4.4263e-19
-1.19728e-18
4.5231e-19
-1.27535e-18
0
0
0
0
0
-9.32231e-19
-1.39222e-18
0
9.69324e-19
1.44942e-18
5.22086e-19
1.53867e-18
1.51169e-18
0
5.51027e-19
0
0
1.10197e-18
0
0
0
5.62826e-19
0
0
1.28326e-18
0
6.15426e-19
0
0
-7.00385e-19
-1.37872e-18
-7.23597e-19
-7.30707e-19
-4.82989e-20
7.45152e-19
4.83013e-20
0
1.53601e-18
0
7.84088e-19
-2.3289e-18
-1.55351e-18
-8.09611e-19
0
-4.83135e-20
0
7.98212e-19
-2.52065e-18
0
-4.62488e-19
-9.35532e-19
-1.32289e-18
0
1.88942e-18
1.37422e-18
-4.96309e-19
0
-1.42986e-18
-5.15378e-19
-5.221e-19
-4.80675e-19
0
-5.43479e-19
0
-2.13864e-18
1.60393e-18
0
1.11913e-18
-1.1852e-18
-6.01749e-19
0
-2.38727e-18
-1.21391e-18
0
-1.25669e-18
-1.94311e-18
0
0
7.00404e-19
-6.65177e-19
0
7.78989e-19
-2.16521e-18
-7.45136e-19
4.83013e-20
-4.83025e-20
7.67987e-19
0
4.83064e-20
1.53647e-18
0
0
-2.40718e-18
-4.83135e-20
0
0
-1.30862e-18
-1.73269e-18
0
1.30662e-18
0
-4.78725e-19
-9.20527e-19
9.80567e-19
-1.44056e-18
0
1.42983e-18
-5.15367e-19
-5.22089e-19
5.29007e-19
-1.5117e-18
1.58206e-18
5.51029e-19
-1.62812e-18
-5.66867e-19
0
1.16747e-18
0
0
1.78523e-18
0
-1.26226e-18
-1.87652e-18
-1.25666e-18
6.63817e-19
-1.35109e-18
-6.87725e-19
0
-7.13564e-19
0
0
-4.82989e-20
-6.96848e-19
-7.52602e-19
-1.47213e-18
0
2.27955e-18
1.56817e-18
0
4.83091e-20
0
-2.40722e-18
1.70357e-18
0
-1.19731e-18
2.11664e-18
0
0
0
2.64576e-18
1.8666e-18
4.84435e-19
4.90291e-19
-1.39225e-18
-1.91328e-18
0
-5.15375e-19
0
0
0
0
1.60476e-18
5.10481e-19
0
0
0
5.92596e-19
6.01746e-19
0
1.242e-18
-6.31138e-19
6.41642e-19
0
0
0
2.01481e-18
7.004e-19
-7.13576e-19
0
-7.30699e-19
0
0
2.25779e-18
0
-2.25568e-18
-7.27643e-19
0
0
1.6018e-18
8.09602e-19
-4.8312e-20
0
-1.23128e-18
8.94836e-19
8.56315e-19
0
4.62483e-19
4.67761e-19
0
9.09134e-19
0
0
4.96303e-19
9.56634e-19
1.01768e-18
-1.44944e-18
1.4696e-18
0
0
0
0
0
1.60391e-18
1.67716e-18
0
0
6.01743e-19
1.78525e-18
0
0
0
0
1.8947e-18
6.7555e-19
1.37546e-18
6.51997e-19
-4.84031e-20
1.39899e-18
2.8262e-18
7.37845e-19
-7.45143e-19
0
-7.60213e-19
0
-2.27954e-18
2.30393e-18
0
-8.009e-19
4.83106e-20
-8.18507e-19
-2.43456e-18
4.90952e-19
0
4.52316e-19
-4.57337e-19
-2.62993e-18
4.67761e-19
-1.84437e-18
-3.25446e-18
-4.36104e-19
9.32246e-19
-9.92606e-19
1.0533e-18
0
0
0
0
0
0
0
0
0
0
0
-1.68105e-18
0
0
1.86299e-18
-6.31135e-19
-1.28328e-18
1.9092e-18
0
0
0
0
0
-6.99495e-19
-4.82977e-20
-7.37845e-19
-7.45143e-19
0
-4.83025e-20
-4.83038e-20
7.75948e-19
7.84079e-19
0
-2.4027e-18
8.09602e-19
-4.8312e-20
-1.65525e-18
-8.85273e-19
-7.98202e-19
-9.04632e-19
1.32369e-18
0
1.30664e-18
0
0
-1.8894e-18
0
1.88855e-18
0
0
1.54612e-18
0
-2.01936e-18
0
5.43473e-19
2.10744e-18
0
0
-5.75172e-19
0
1.72941e-18
5.53376e-19
1.78524e-18
1.24199e-18
0
0
0
0
2.60542e-18
-4.83947e-20
-7.00396e-19
2.09231e-18
6.99485e-19
4.82977e-20
7.37835e-19
7.45133e-19
0
2.2323e-18
0
-7.75937e-19
0
0
-2.35436e-18
-8.09591e-19
-1.63699e-18
0
0
-4.47412e-19
0
0
0
-1.45159e-18
0
-1.81824e-18
1.35662e-18
0
0
0
1.42982e-18
0
0
0
5.84474e-19
0
0
0
5.66865e-19
-5.26806e-19
-1.1191e-18
0
6.01734e-19
0
0
0
0
0
0
4.83907e-20
1.37544e-18
0
7.13562e-19
1.37489e-18
-2.14378e-18
0
7.45139e-19
0
-7.60208e-19
-1.53598e-18
1.55189e-18
2.30392e-18
7.9239e-19
7.52586e-19
1.57088e-18
-8.18502e-19
-8.75932e-19
0
0
-4.52313e-19
-4.57334e-19
-4.83215e-20
1.82271e-18
0
-2.24865e-18
0
0
4.963e-19
0
1.5265e-18
-5.15369e-19
1.04418e-18
1.49034e-18
0
2.07718e-18
4.83502e-20
0
2.17077e-18
-1.67715e-18
-2.23823e-18
5.44225e-19
1.75685e-18
0
0
1.94177e-18
1.87652e-18
0
-2.5585e-18
0
-1.42385e-18
0
0
0
0
-1.42736e-18
6.96825e-19
7.52579e-19
0
0
2.27948e-18
1.61643e-18
0
0
2.47706e-18
1.63697e-18
0
-4.42626e-19
1.24559e-18
5.00624e-19
0
0
0
2.64568e-18
0
0
4.90277e-19
0
1.96155e-18
1.4298e-18
-1.07906e-18
0
5.29e-19
1.51168e-18
0
-5.51022e-19
-1.11764e-18
-5.66859e-19
0
-2.23818e-18
-1.18516e-18
-1.75682e-18
-1.7852e-18
1.14522e-18
-1.79661e-18
0
-6.52511e-19
0
1.30268e-18
4.83947e-20
-1.44916e-18
-1.37871e-18
2.40935e-20
-7.30689e-19
-7.37836e-19
0
0
0
0
0
1.51983e-18
7.92384e-19
0
-8.09591e-19
0
0
4.8315e-20
0
-1.2603e-18
0
0
-4.67755e-19
8.98012e-19
0
-8.72195e-19
1.86447e-18
0
-5.02478e-19
-9.69326e-19
-1.96478e-18
1.99167e-18
0
1.07226e-18
-4.95118e-19
0
0
0
0
1.65448e-18
-2.27361e-18
0
0
0
0
-6.4163e-19
0
-1.27924e-18
4.83907e-20
1.32705e-18
-6.51988e-19
0
-2.07433e-18
-7.30677e-19
0
-1.44194e-18
7.52575e-19
8.08492e-19
7.67971e-19
4.83051e-20
0
4.83078e-20
0
1.61915e-18
0
8.27598e-19
0
1.24558e-18
4.52303e-19
1.32365e-18
-8.76618e-19
-5.64394e-19
4.73161e-19
0
9.20508e-19
0
9.44245e-19
0
-9.69309e-19
-1.49773e-18
0
-5.28997e-19
-3.07168e-18
-4.9511e-19
0
-1.06928e-18
1.65221e-18
1.67711e-18
-2.28653e-18
2.27357e-18
0
0
1.81456e-18
-6.31116e-19
-6.41619e-19
0
-1.99141e-18
0
-2.06313e-18
2.05273e-18
-6.65147e-19
0
7.30684e-19
-4.82989e-20
0
-7.52582e-19
-1.47209e-18
-7.67979e-19
0
-7.84063e-19
4.83078e-20
0
0
0
-1.6069e-18
1.23125e-18
8.46501e-19
2.97288e-18
-2.14168e-18
-1.80157e-18
0
-8.4968e-19
4.7872e-19
2.32546e-18
0
0
0
5.08828e-19
1.54608e-18
-5.70424e-19
0
0
0
0
0
2.17073e-18
1.62876e-18
0
-1.72938e-18
2.31019e-18
1.22238e-18
-7.1773e-19
1.21387e-18
1.28325e-18
1.90916e-18
0
0
6.87717e-19
0
0
-6.99471e-19
-6.82376e-19
7.3782e-19
7.45118e-19
0
1.47207e-18
-7.67968e-19
-4.83051e-20
-7.84053e-19
0
1.65005e-18
0
8.18479e-19
-4.83135e-20
0
0
1.26027e-18
4.57322e-19
0
-1.87098e-18
-4.73159e-19
0
4.84417e-19
1.37416e-18
0
0
-1.01764e-18
-5.15355e-19
-1.46955e-18
-1.4903e-18
0
0
-1.10203e-18
1.57973e-18
0
0
1.16744e-18
1.18515e-18
0
2.348e-18
-1.76618e-18
0
-1.28323e-18
-6.04122e-19
1.27922e-18
0
0
0
2.09224e-18
0
-7.30678e-19
0
0
0
1.47208e-18
-7.67973e-19
4.83051e-20
-7.84057e-19
7.92372e-19
0
0
-8.18484e-19
-4.83135e-20
0
-4.47406e-19
0
8.18009e-19
0
0
0
1.3395e-18
1.3566e-18
0
0
0
9.69311e-19
0
1.5179e-18
-1.058e-18
-1.56002e-18
0
0
-1.11763e-18
-1.65222e-18
1.67711e-18
5.83724e-19
-1.72936e-18
0
0
0
0
0
0
-1.32761e-18
-2.60534e-18
0
1.35235e-18
0
0
0
2.16515e-18
0
-2.30601e-18
-7.60184e-19
-4.83038e-20
-7.27614e-19
0
7.92365e-19
0
4.83106e-20
1.58864e-18
0
-8.36927e-19
0
-4.03982e-19
1.32364e-18
8.76612e-19
-8.87165e-19
4.73158e-19
1.33948e-18
-4.84415e-19
0
-4.96285e-19
2.41566e-18
0
-1.44938e-18
0
-1.53864e-18
1.56e-18
0
-1.05368e-18
-5.10458e-19
0
-1.19866e-18
-2.23815e-18
0
1.20344e-18
1.12563e-18
0
0
0
-2.56163e-18
6.63799e-19
0
2.06312e-18
6.51971e-19
7.13545e-19
0
-1.41305e-18
0
1.49023e-18
7.5257e-19
7.60185e-19
-7.67967e-19
-7.7592e-19
-7.84051e-19
-7.92366e-19
-8.00871e-19
-8.09572e-19
0
0
8.36927e-19
0
0
0
1.29076e-18
-4.19421e-19
-8.49666e-19
0
0
0
0
9.08264e-19
-5.0882e-19
5.15354e-19
0
1.05799e-18
0
0
0
-2.13854e-18
0
0
-6.32081e-19
0
5.53354e-19
6.11183e-19
-1.24195e-18
0
-1.28323e-18
1.90913e-18
-1.23083e-18
6.75525e-19
0
0
0
0
0
0
0
0
7.11879e-19
0
2.27944e-18
7.84047e-19
7.44054e-19
0
1.61914e-18
-8.18473e-19
0
-4.8315e-20
0
0
-8.66317e-19
1.33907e-18
8.87161e-19
-4.73156e-19
-4.83267e-20
0
-8.83877e-19
-1.39219e-18
0
0
0
5.22073e-19
0
0
0
0
0
0
-1.10194e-18
0
-1.68098e-18
-1.20344e-18
0
-6.20971e-19
1.26222e-18
4.83797e-20
0
0
1.30265e-18
-1.32701e-18
-4.83988e-20
-7.13543e-19
-1.39893e-18
0
4.82989e-20
-7.4511e-19
0
7.60179e-19
0
0
-7.84045e-19
7.92359e-19
0
4.83106e-20
-1.58863e-18
-1.7518e-18
-8.36921e-19
0
0
-8.17995e-19
9.24927e-19
-8.87158e-19
8.97984e-19
-9.09092e-19
0
0
0
-5.02463e-19
0
-5.1535e-19
1.04414e-18
1.00964e-18
1.51165e-18
0
5.51011e-19
0
-5.66848e-19
0
1.16743e-18
-1.72934e-18
-2.31013e-18
0
0
-4.83763e-20
0
1.305e-18
0
1.30265e-18
0
-1.35233e-18
7.1354e-19
-6.75369e-19
0
-4.82989e-20
0
7.52563e-19
0
0
-1.50352e-18
7.84044e-19
-1.58472e-18
-8.00864e-19
-2.38038e-18
1.58863e-18
0
0
4.47398e-19
-1.26025e-18
0
0
-1.82264e-18
-8.97983e-19
1.3878e-18
0
1.86441e-18
1.93679e-18
9.5659e-19
1.01763e-18
0
-4.83408e-20
-5.28989e-19
0
1.0869e-18
2.10734e-18
-2.18687e-18
1.1337e-18
1.15029e-18
0
0
0
0
-1.24194e-18
-1.79657e-18
-1.23484e-18
0
-2.5584e-18
0
0
-1.35233e-18
-7.1354e-19
0
6.82363e-19
4.82989e-20
1.44191e-18
0
8.08475e-19
-7.1965e-19
0
0
-7.92353e-19
0
0
1.58862e-18
8.2758e-19
-1.62551e-18
0
0
-2.14161e-18
0
-1.30656e-18
0
0
0
0
0
0
-1.01762e-18
0
0
-1.00963e-18
0
0
-1.05366e-18
1.5797e-18
0
-2.20385e-18
0
0
0
5.62803e-19
2.38711e-18
1.21383e-18
6.89985e-19
4.83832e-20
0
0
0
1.40072e-18
2.1406e-18
1.42302e-18
7.30664e-19
-7.3781e-19
0
0
0
-7.67958e-19
7.75911e-19
0
-2.37707e-18
8.00862e-19
8.09563e-19
0
8.27584e-19
-2.51075e-18
8.46478e-19
0
1.27531e-18
0
-1.35489e-18
4.24828e-19
0
0
-2.35467e-18
1.93679e-18
5.02461e-19
0
1.0307e-18
0
0
0
1.53365e-18
2.10734e-18
-4.83528e-20
0
2.77901e-18
0
0
0
5.62806e-19
6.6934e-19
1.26221e-18
0
-1.90911e-18
1.94299e-18
0
-6.87699e-19
0
7.13538e-19
7.23551e-19
-4.82977e-20
1.47561e-18
7.45104e-19
0
-7.60173e-19
0
0
-7.84038e-19
0
-2.35426e-18
1.61912e-18
0
1.65516e-18
-2.46243e-18
-4.47395e-19
0
0
0
0
0
0
0
0
0
1.91317e-18
2.44739e-18
0
-1.51786e-18
0
0
0
0
-1.62805e-18
2.17066e-18
0
0
0
6.50078e-19
6.11173e-19
-1.81452e-18
-1.21383e-18
0
1.2566e-18
-1.2308e-18
0
1.37539e-18
0
0
-6.99463e-19
-1.50963e-18
0
-2.18703e-18
-1.45683e-18
4.83025e-20
0
2.27943e-18
0
0
0
-8.09565e-19
0
-8.27586e-19
0
0
-8.56275e-19
1.68431e-18
-1.33907e-18
0
0
9.57418e-19
0
-1.86441e-18
0
0
-9.69295e-19
0
0
-4.80646e-19
5.36112e-19
0
0
0
0
0
0
0
-2.31013e-18
1.12562e-18
-1.86291e-18
4.83763e-20
0
0
2.65517e-18
-1.35104e-18
-6.87701e-19
7.00364e-19
0
0
-7.30666e-19
-2.26174e-18
7.4511e-19
0
0
0
0
0
-1.58472e-18
4.83091e-20
0
2.45541e-18
-8.27587e-19
2.46245e-18
-3.99082e-19
0
-4.57317e-19
0
8.87158e-19
8.97984e-19
-1.86651e-18
0
1.37414e-18
0
4.54128e-19
1.42978e-18
2.94708e-18
4.73731e-19
1.49028e-18
0
-5.4345e-19
5.99361e-19
0
-2.73753e-18
0
-1.65442e-18
0
0
1.78516e-18
-1.24194e-18
-2.47605e-18
0
-6.52499e-19
0
0
1.32701e-18
-7.00365e-19
0
0
0
-2.16515e-18
6.96813e-19
0
-2.23224e-18
0
0
7.84047e-19
0
8.00867e-19
-8.09568e-19
-1.58863e-18
-4.83135e-20
2.06815e-18
1.64465e-18
0
0
0
-1.3549e-18
-8.49662e-19
-1.33948e-18
-4.84413e-19
8.83877e-19
1.9368e-18
0
1.47812e-18
0
9.95806e-19
0
0
1.0869e-18
1.05368e-18
-5.10456e-19
-5.6685e-19
-2.20388e-18
-5.83717e-19
0
1.20344e-18
1.22236e-18
-1.81454e-18
-4.83763e-20
1.87646e-18
0
0
-1.97818e-18
-6.87703e-19
-7.00367e-19
-7.13543e-19
0
2.14372e-18
0
7.93416e-19
-7.5257e-19
0
0
0
0
-7.92366e-19
0
-8.09572e-19
0
0
0
4.47402e-19
0
-9.14641e-19
0
0
-9.46316e-19
3.15769e-18
-1.35659e-18
1.42248e-18
-1.93681e-18
-1.45906e-18
-1.52646e-18
-1.49772e-18
4.73735e-19
0
0
-5.43454e-19
-5.02665e-19
0
0
0
0
-5.92572e-19
0
-3.00755e-18
0
0
0
0
-2.55842e-18
1.97819e-18
-2.06312e-18
1.35234e-18
0
0
-7.30671e-19
-1.42734e-18
7.45116e-19
-2.20941e-18
0
-7.67966e-19
-7.75919e-19
-7.8405e-19
-7.92365e-19
-2.30599e-18
0
-8.66789e-19
-7.79279e-19
-1.67385e-18
4.83166e-20
-8.56282e-19
8.66321e-19
0
2.24207e-18
0
4.78713e-19
-1.40492e-18
0
-4.47953e-19
1.91319e-18
-4.60483e-19
0
-2.03996e-18
0
9.75542e-19
-2.07712e-18
1.10203e-18
0
0
-2.20389e-18
5.83719e-19
0
-1.20344e-18
-5.62813e-19
1.81455e-18
0
0
6.52503e-19
0
0
-1.32702e-18
2.70468e-18
2.09223e-18
0
1.41306e-18
-7.37825e-19
0
2.20943e-18
0
7.67973e-19
0
-2.25556e-18
9.66155e-20
0
0
0
0
0
0
0
4.57324e-19
1.33909e-18
-8.87173e-19
0
-1.38782e-18
-4.84419e-19
0
-4.47957e-19
0
9.69311e-19
0
5.2208e-19
1.49031e-18
0
1.03857e-18
0
0
0
0
0
0
-2.31017e-18
0
0
0
1.23486e-18
-1.25663e-18
0
1.30267e-18
6.87712e-19
0
0
-2.07432e-18
-7.30674e-19
0
0
1.45684e-18
-7.60187e-19
1.53594e-18
4.83051e-20
4.83064e-20
0
1.55344e-18
-4.83106e-20
-1.63696e-18
0
8.36929e-19
-1.24558e-18
1.30859e-18
-1.68433e-18
-4.62468e-19
4.67745e-19
0
1.8182e-18
-1.35659e-18
1.37416e-18
9.44241e-19
-5.02468e-19
-4.60485e-19
1.49773e-18
5.22077e-19
0
0
4.95108e-19
-4.83502e-20
1.06927e-18
0
0
0
-5.92573e-19
-6.01722e-19
1.78518e-18
0
0
-1.23485e-18
-1.25663e-18
0
-1.35105e-18
-2.65404e-18
1.35235e-18
6.65144e-19
-6.99481e-19
0
-4.82989e-20
-1.44196e-18
7.52582e-19
0
4.83038e-20
0
-2.30388e-18
-1.53645e-18
-8.00883e-19
0
-1.58867e-18
1.65521e-18
-3.94313e-19
2.5395e-18
-1.26029e-18
-1.27534e-18
0
-4.67751e-19
1.27452e-18
-1.81823e-18
0
-4.90278e-19
-2.33647e-18
0
5.08828e-19
-1.03072e-18
1.99165e-18
0
-1.51168e-18
0
-5.51024e-19
5.5882e-19
0
-5.26802e-19
1.1191e-18
-2.27359e-18
0
-5.62823e-19
0
-1.26224e-18
1.8765e-18
1.90916e-18
-1.89466e-18
4.83907e-20
1.32704e-18
0
-1.37871e-18
-6.99474e-19
0
1.42735e-18
-7.45121e-19
4.83013e-20
0
1.53594e-18
-7.75925e-19
0
0
8.00876e-19
-8.09577e-19
0
8.27598e-19
0
-1.24558e-18
4.52303e-19
2.59898e-18
0
8.87171e-19
-1.41948e-18
1.33949e-18
-9.20508e-19
-1.37416e-18
1.88849e-18
0
5.08823e-19
-1.96475e-18
1.56624e-18
-1.4903e-18
-5.3612e-19
0
0
2.13855e-18
-1.037e-18
0
0
-1.681e-18
0
0
0
-4.83763e-20
0
0
0
0
0
0
0
6.99486e-19
-7.30689e-19
-7.37836e-19
-7.45133e-19
2.20946e-18
0
7.67984e-19
-7.75938e-19
0
7.92384e-19
-8.00889e-19
0
8.66808e-19
-4.83135e-20
1.67389e-18
0
-2.1166e-18
0
0
-4.67755e-19
0
4.78724e-19
4.84426e-19
4.90282e-19
0
1.41076e-18
5.08831e-19
-1.44942e-18
-5.22087e-19
1.00967e-18
-1.02391e-18
0
1.05371e-18
0
2.17075e-18
5.26806e-19
0
-1.13681e-18
1.8052e-18
1.17402e-18
-1.81459e-18
0
1.23488e-18
1.90917e-18
0
4.83907e-20
0
-7.00386e-19
2.09228e-18
0
1.41306e-18
7.86126e-19
0
2.20944e-18
7.60194e-19
0
-4.83051e-20
0
0
2.40264e-18
1.61916e-18
4.8312e-20
0
2.1165e-18
-8.46498e-19
1.26028e-18
4.57326e-19
0
0
9.46327e-19
-2.29694e-18
0
-1.91278e-18
9.44251e-19
-1.45908e-18
0
-4.67021e-19
-9.95823e-19
0
-4.87778e-19
0
-1.60472e-18
-5.10465e-19
0
0
-1.70282e-18
5.92578e-19
1.75682e-18
-6.1119e-19
-1.81457e-18
0
-6.41623e-19
0
-1.27923e-18
-7.23924e-19
-6.87715e-19
7.00379e-19
7.13554e-19
0
7.30694e-19
1.42738e-18
-2.18712e-18
0
-1.47211e-18
-1.53598e-18
0
7.84074e-19
0
2.40268e-18
8.09597e-19
0
-7.79305e-19
4.42634e-19
0
-9.04627e-19
-8.66348e-19
8.76639e-19
0
4.73172e-19
-4.78727e-19
0
0
0
0
-1.47817e-18
1.44943e-18
0
-5.29009e-19
2.04784e-18
2.07718e-18
2.10743e-18
1.62813e-18
0
5.75168e-19
0
0
1.70848e-18
0
0
0
0
0
1.32764e-18
2.65379e-18
0
0
0
2.74976e-18
0
0
7.45133e-19
7.52587e-19
7.60202e-19
-3.02363e-18
0
-7.84069e-19
0
0
0
0
0
0
-4.47412e-19
4.5231e-19
1.27535e-18
0
-1.77437e-18
1.7477e-18
0
-9.20524e-19
-8.83902e-19
0
-1.00495e-18
-4.83365e-20
0
0
5.29005e-19
-5.36129e-19
0
0
0
0
0
-5.83733e-19
0
0
1.22239e-18
0
1.79663e-18
1.23488e-18
0
0
0
-2.01477e-18
7.00386e-19
7.13562e-19
-6.99495e-19
-7.30699e-19
-7.37845e-19
2.23543e-18
7.52597e-19
0
0
0
7.8408e-19
1.48817e-18
0
0
0
2.43456e-18
0
-1.29394e-18
0
-1.27537e-18
-4.62483e-19
8.87198e-19
8.98024e-19
-9.09133e-19
-9.20536e-19
-9.32246e-19
1.39224e-18
2.8699e-18
-1.47818e-18
-1.49778e-18
1.51794e-18
0
5.36136e-19
1.13529e-18
-1.5564e-18
1.06931e-18
-5.18517e-19
5.75172e-19
-1.11912e-18
1.18519e-18
0
0
0
0
5.93259e-19
4.83832e-20
-7.1221e-19
-6.27159e-19
-4.83947e-20
-2.05279e-18
7.13572e-19
0
7.30699e-19
0
0
1.45689e-18
-7.60213e-19
-1.48768e-18
0
0
0
0
0
8.18507e-19
0
-4.42636e-19
0
8.56314e-19
5.05656e-19
-1.33913e-18
1.35496e-18
0
1.81827e-18
-4.84432e-19
1.3742e-18
1.88855e-18
1.41078e-18
0
5.6371e-19
4.73753e-19
5.29012e-19
0
2.0772e-18
5.99385e-19
2.13862e-18
0
0
0
1.13682e-18
2.96034e-18
0
5.72623e-19
1.21389e-18
0
-1.30505e-18
-4.83869e-20
0
-6.87731e-19
0
-7.13572e-19
0
-4.82977e-20
-1.42739e-18
2.18713e-18
0
-2.23234e-18
7.67995e-19
7.75948e-19
-7.35773e-19
0
1.6018e-18
0
-1.63702e-18
-8.27624e-19
0
-1.24562e-18
0
-1.27537e-18
3.0441e-18
0
4.73175e-19
-8.60807e-19
9.20537e-19
0
-9.44274e-19
-1.91327e-18
5.08838e-19
-5.15372e-19
0
0
5.36136e-19
0
0
0
1.13375e-18
-2.20397e-18
0
-2.32201e-18
-2.31024e-18
1.78525e-18
0
0
0
-4.83832e-20
0
0
-6.87732e-19
0
0
-6.995e-19
2.14381e-18
0
0
-7.52602e-19
7.60217e-19
7.67999e-19
7.27648e-19
0
0
1.60181e-18
-1.5709e-18
-8.18512e-19
0
0
0
4.04001e-19
9.14678e-19
0
9.35527e-19
-4.73177e-19
0
-1.35665e-18
0
0
1.50746e-18
5.08841e-19
-2.89889e-18
-9.95853e-19
-1.5387e-18
1.12062e-18
0
1.55641e-18
0
1.65227e-18
0
0
0
0
0
1.242e-18
0
0
-6.52531e-19
0
0
6.87736e-19
0
-1.37875e-18
1.37488e-18
-6.82393e-19
-6.89539e-19
-1.44197e-18
-2.20947e-18
-4.83025e-20
-7.67987e-19
-1.50358e-18
-7.84071e-19
-1.53647e-18
0
-8.09593e-19
-1.58869e-18
-2.43453e-18
-8.36949e-19
0
8.56306e-19
-1.27536e-18
-4.62479e-19
-8.87189e-19
-8.4969e-19
4.78725e-19
-2.32548e-18
0
0
0
0
0
0
1.00967e-18
-1.56005e-18
0
0
-2.1386e-18
5.66867e-19
1.05362e-18
0
0
1.15511e-18
-2.34805e-18
6.2099e-19
1.1655e-18
-6.41632e-19
-1.25666e-18
-4.83869e-20
-1.2543e-18
0
7.00389e-19
7.13564e-19
1.37491e-18
0
7.37854e-19
-7.45152e-19
0
0
-7.19699e-19
-7.75957e-19
0
2.37721e-18
8.00909e-19
0
0
-8.27633e-19
1.23129e-18
0
1.30865e-18
0
0
0
0
-4.78735e-19
0
0
4.83325e-20
0
0
5.15378e-19
-1.46962e-18
-9.6135e-19
-4.87796e-19
-1.53374e-18
-2.10746e-18
0
1.60393e-18
5.75178e-19
0
0
0
-2.34811e-18
0
1.21391e-18
0
-1.90922e-18
0
0
1.37548e-18
0
-2.09234e-18
-1.37487e-18
0
-7.37834e-19
-7.45132e-19
1.45687e-18
7.60201e-19
0
0
-4.83064e-20
0
-7.52578e-19
8.09589e-19
-8.18494e-19
0
1.7222e-18
-1.34223e-18
0
0
1.33911e-18
0
2.69403e-18
0
5.81082e-19
-1.42251e-18
-1.88852e-18
1.41076e-18
5.0883e-19
5.15364e-19
-5.22086e-19
1.00967e-18
1.51169e-18
2.07716e-18
5.02676e-19
0
-1.60388e-18
0
0
-5.92584e-19
0
0
0
5.82749e-19
0
0
0
0
6.87721e-19
-1.40077e-18
0
-2.05033e-18
-7.3071e-19
-4.82989e-20
7.45155e-19
0
-7.60225e-19
0
1.50362e-18
2.40058e-18
-7.441e-19
-8.00913e-19
0
-1.58873e-18
0
-3.94328e-19
2.58791e-18
1.71266e-18
-2.55078e-18
-1.29083e-18
1.35498e-18
-1.3229e-18
0
0
-9.32261e-19
0
1.9133e-18
-9.69355e-19
1.96484e-18
-1.99173e-18
-1.05804e-18
-5.84489e-19
-1.08696e-18
0
0
-5.66882e-19
5.75181e-19
0
5.44238e-19
-2.86366e-18
1.83364e-18
-1.24201e-18
0
-1.23492e-18
0
0
1.97829e-18
-4.83947e-20
7.00407e-19
-1.42717e-18
6.99488e-19
0
4.82989e-20
0
-7.5259e-19
1.47211e-18
-2.25566e-18
0
4.83064e-20
0
4.83091e-20
-1.61919e-18
-8.18499e-19
2.48285e-18
8.36949e-19
-1.29392e-18
4.52312e-19
-1.27536e-18
1.29079e-18
-1.30662e-18
4.7317e-19
0
0
0
0
0
5.08833e-19
-6.12044e-19
-5.22089e-19
0
0
-5.43468e-19
0
-1.0693e-18
6.15222e-19
0
-5.35374e-19
0
0
6.59569e-19
-6.2099e-19
-4.83763e-20
1.33164e-18
1.8608e-18
0
0
-1.37545e-18
-7.00389e-19
0
0
-7.30713e-19
0
0
4.83013e-20
1.47215e-18
0
7.27659e-19
-7.84095e-19
2.32892e-18
0
-8.09618e-19
0
8.2764e-19
0
4.47426e-19
-1.76098e-18
1.2754e-18
-1.29083e-18
0
-9.46367e-19
0
0
4.41967e-19
-4.96313e-19
0
5.08848e-19
-1.96485e-18
0
5.29023e-19
1.02395e-18
0
0
0
-2.17082e-18
-1.10201e-18
1.1675e-18
1.72945e-18
1.7569e-18
-1.22243e-18
0
1.31067e-18
5.93271e-19
0
-1.27929e-18
4.83907e-20
1.3271e-18
-1.35242e-18
2.09235e-18
-6.99504e-19
1.41312e-18
2.16526e-18
7.45152e-19
4.83013e-20
2.23236e-18
0
1.50361e-18
0
0
-7.526e-19
8.57922e-19
0
0
0
8.46529e-19
4.52321e-19
0
-4.14167e-19
4.67766e-19
-3.11896e-18
1.43621e-18
0
1.37422e-18
0
-9.08311e-19
-5.08844e-19
0
4.73759e-19
0
-1.07228e-18
0
-5.02691e-19
-1.11768e-18
0
0
0
0
6.01749e-19
1.22242e-18
0
0
0
0
1.27928e-18
-1.30272e-18
6.39345e-19
0
-7.1358e-19
7.23606e-19
2.09555e-18
0
0
-8.00916e-19
0
7.68012e-19
7.75966e-19
0
0
0
0
7.70214e-19
-1.65529e-18
4.42646e-19
-1.24565e-18
-4.52326e-19
0
-2.1675e-18
0
0
1.76998e-18
-1.35667e-18
-1.86454e-18
4.47982e-19
0
-9.69362e-19
1.96486e-18
1.51798e-18
0
-1.02395e-18
0
0
1.62818e-18
0
-5.75185e-19
-5.83754e-19
-5.92606e-19
5.53389e-19
0
0
0
-6.41653e-19
-6.52542e-19
-1.94313e-18
-7.23956e-19
0
0
1.42718e-18
2.40935e-20
-1.41313e-18
0
-7.45161e-19
0
-7.6023e-19
1.53602e-18
0
-1.51989e-18
4.83078e-20
-1.55353e-18
0
8.18526e-19
0
0
-1.29397e-18
4.83182e-20
0
0
4.67771e-19
0
0
-1.45333e-18
8.83937e-19
-4.96314e-19
9.56656e-19
-1.42987e-18
5.15384e-19
0
-1.05805e-18
1.0723e-18
4.95138e-19
5.99398e-19
-1.06933e-18
1.08542e-18
5.26827e-19
-1.16751e-18
1.18521e-18
0
-1.78529e-18
3.62932e-18
-5.82773e-19
-1.23493e-18
0
0
-6.27175e-19
6.39353e-19
7.00412e-19
-7.13588e-19
0
-4.82977e-20
6.89549e-19
0
-2.2095e-18
-7.60215e-19
0
7.75951e-19
0
-1.53649e-18
8.00903e-19
1.61921e-18
8.1851e-19
1.65525e-18
-4.42638e-19
0
-8.56317e-19
0
1.29081e-18
-8.87201e-19
0
9.09136e-19
-1.35664e-18
0
1.48891e-18
2.41576e-18
4.60503e-19
9.82409e-19
0
0
0
4.95127e-19
2.10745e-18
2.13863e-18
0
0
-5.83742e-19
-5.44231e-19
-1.75687e-18
0
1.242e-18
0
0
1.30506e-18
0
0
6.87734e-19
0
-7.13574e-19
0
-1.41314e-18
-1.47573e-18
7.45163e-19
0
-7.60232e-19
7.1971e-19
-4.83051e-20
0
2.32894e-18
-7.52611e-19
0
0
-8.27645e-19
4.42647e-19
-3.99112e-19
0
0
-4.14173e-19
4.67772e-19
-1.74777e-18
-1.3879e-18
-5.32773e-19
-9.3227e-19
0
0
5.08851e-19
-9.82431e-19
0
0
0
5.43487e-19
0
0
0
1.10201e-18
-1.65454e-18
5.92608e-19
1.75691e-18
6.1122e-19
-1.14528e-18
4.83763e-20
0
-5.55777e-19
0
1.35113e-18
6.87749e-19
-7.00414e-19
0
2.40935e-20
0
-1.42738e-18
-7.45136e-19
7.5259e-19
-7.11903e-19
2.30396e-18
0
0
0
1.55347e-18
-4.83106e-20
-8.18499e-19
0
1.23127e-18
8.4651e-19
-1.71261e-18
0
-1.29079e-18
-4.67756e-19
0
0
-9.20527e-19
4.41953e-19
0
0
-1.42983e-18
-1.03073e-18
5.22089e-19
1.00967e-18
-9.7557e-19
0
-5.02679e-19
1.02095e-18
0
1.15033e-18
-2.23822e-18
-1.77776e-18
-6.01736e-19
0
1.8146e-18
-6.79505e-19
4.83797e-20
-1.25666e-18
0
0
2.01478e-18
-2.10117e-18
7.13565e-19
-6.99515e-19
4.82977e-20
-4.82989e-20
-4.83001e-20
-7.04317e-19
-1.52047e-18
7.68015e-19
0
0
-7.92416e-19
0
0
-8.1853e-19
0
4.42648e-19
-8.46542e-19
-4.52328e-19
4.57348e-19
0
1.30667e-18
4.73187e-19
-4.78743e-19
0
1.37424e-18
-1.39228e-18
0
0
0
0
0
-1.0723e-18
0
2.1075e-18
0
0
-1.72556e-18
1.70291e-18
1.13685e-18
0
-1.22244e-18
0
-1.21393e-18
0
0
1.37607e-18
0
0
7.00415e-19
0
2.40935e-20
0
0
0
-2.20949e-18
4.83025e-20
0
0
-1.51985e-18
0
0
0
-8.18505e-19
-8.27622e-19
8.36956e-19
0
0
-4.57336e-19
0
-9.35519e-19
0
1.00578e-18
-1.35664e-18
0
-4.4797e-19
-4.54149e-19
-1.01767e-18
0
0
2.01936e-18
0
-5.43472e-19
-5.51034e-19
0
2.68929e-18
-2.20397e-18
1.75122e-18
0
0
-1.78524e-18
-1.19362e-18
0
0
-1.25667e-18
1.94308e-18
0
0
-6.51995e-19
-7.1357e-19
6.99516e-19
0
2.2136e-18
0
0
2.2324e-18
-2.97546e-18
0
1.5199e-18
7.92417e-19
-8.00923e-19
8.09625e-19
0
8.27647e-19
1.23132e-18
1.29397e-18
0
-4.57349e-19
9.24991e-19
0
-8.9805e-19
9.09159e-19
0
-1.86454e-18
5.44649e-19
-9.56661e-19
0
-9.82433e-19
5.70449e-19
0
-1.02396e-18
0
-1.6048e-18
0
2.17084e-18
2.77922e-18
0
1.72946e-18
1.75691e-18
5.62852e-19
-5.72641e-19
-1.21393e-18
-6.41656e-19
1.25671e-18
0
-2.60549e-18
-6.87751e-19
7.00415e-19
0
0
0
7.37866e-19
-7.45164e-19
-7.04317e-19
-7.60234e-19
7.68016e-19
-7.27665e-19
0
-7.92417e-19
8.00923e-19
-1.61925e-18
7.70218e-19
7.79333e-19
0
0
8.56339e-19
4.57349e-19
-4.62496e-19
2.24222e-18
1.32291e-18
1.33958e-18
9.20563e-19
-1.37424e-18
0
0
1.47822e-18
1.03077e-18
-5.22108e-19
-1.00971e-18
0
0
1.6048e-18
1.06934e-18
0
-2.20403e-18
2.2383e-18
-1.13685e-18
1.20352e-18
-1.73693e-18
-3.62934e-18
1.7967e-18
0
1.30509e-18
0
0
-6.87751e-19
0
0
0
-7.30719e-19
2.1653e-18
-6.96864e-19
-7.52619e-19
1.52047e-18
-7.68016e-19
0
7.35795e-19
0
0
-8.57935e-19
0
8.27647e-19
-8.36982e-19
-8.46543e-19
0
0
-8.7667e-19
0
0
0
4.36117e-19
0
-1.39229e-18
-1.41082e-18
1.42988e-18
1.44948e-18
0
-1.49039e-18
0
1.08698e-18
-5.027e-19
0
-1.65231e-18
0
0
-1.72946e-18
0
0
-6.21014e-19
0
-6.41656e-19
-1.25671e-18
0
1.35114e-18
-1.32711e-18
7.00415e-19
4.84031e-20
0
-7.30719e-19
0
-7.45164e-19
-1.45694e-18
7.60234e-19
-1.48773e-18
-7.27665e-19
0
0
8.49232e-19
0
0
0
0
2.58795e-18
0
4.83198e-20
-1.29084e-18
-2.61335e-18
-2.31761e-18
0
-4.84446e-19
4.90301e-19
1.39229e-18
0
0
0
-2.46552e-18
-1.49039e-18
0
0
5.027e-19
0
0
0
0
-1.72946e-18
-1.75691e-18
0
1.81467e-18
1.89346e-18
0
0
0
4.83907e-20
6.87751e-19
2.05285e-18
0
6.99494e-19
0
-7.37844e-19
0
0
-7.60211e-19
0
0
3.088e-18
0
-1.6018e-18
8.096e-19
-8.18505e-19
0
-4.42636e-19
0
-1.26031e-18
-4.57336e-19
0
-1.82272e-18
2.69407e-18
0
-4.84431e-19
-5.38618e-19
0
0
-1.93867e-18
5.15371e-19
0
0
-1.51171e-18
-1.58207e-18
1.60475e-18
0
0
1.67715e-18
-1.70286e-18
-5.44228e-19
0
1.22241e-18
1.24199e-18
-6.31133e-19
1.23489e-18
-1.90919e-18
0
0
0
2.05278e-18
1.42714e-18
0
0
1.42743e-18
7.93464e-19
7.52618e-19
1.47216e-18
0
-1.50363e-18
0
0
1.55353e-18
0
2.40728e-18
0
2.0683e-18
-2.49131e-18
-8.56338e-19
0
4.14174e-19
-1.72612e-18
-2.74247e-18
0
-1.40501e-18
8.83941e-19
-1.39228e-18