/*--------------------------------*- C++ -*----------------------------------*\
  =========                 |
  \\      /  F ield         | OpenFOAM: The Open Source CFD Toolbox
   \\    /   O peration     | Website:  https://openfoam.org
    \\  /    A nd           | Version:  6
     \\/     M anipulation  |
\*---------------------------------------------------------------------------*/
FoamFile
{
    version     2.0;
    format      ascii;
    class       volScalarField;
    location    "90";
    object      gradTy;
}
// * * * * * * * * * * * * * * * * * * * * * * * * * * * * * * * * * * * * * //

dimensions      [0 -1 0 1 0 0 0];

internalField   nonuniform List<scalar> 
13524
(
4.98634
5.04446
5.10087
5.15698
5.21342
5.27055
5.32866
5.38787
5.4483
5.51004
5.57314
5.63767
5.70367
5.77121
5.84037
5.91122
5.9838
6.05817
6.13441
6.21258
6.29275
6.37502
6.45947
6.54619
6.63527
6.72681
6.82091
6.91767
7.01722
7.1197
7.22523
7.33394
7.44597
7.56144
7.68055
7.80346
7.93037
8.06147
8.19696
8.33706
8.48206
8.63222
8.78781
8.94918
9.11667
9.29074
9.47194
9.6612
9.86037
5.00048
5.04977
5.1021
5.15627
5.21175
5.26846
5.32634
5.38544
5.44581
5.5075
5.57057
5.63506
5.70103
5.76854
5.83767
5.90849
5.98105
6.05539
6.13158
6.20971
6.28984
6.37207
6.45649
6.54317
6.63221
6.7237
6.81775
6.91446
7.01398
7.11643
7.22192
7.33058
7.44254
7.55796
7.67702
7.79989
7.92674
8.05775
8.19315
8.33319
8.4781
8.62813
8.78355
8.94465
9.11169
9.28486
9.4641
9.64827
9.83211
4.78967
4.84256
4.89476
4.94727
5.00057
5.05488
5.11028
5.16685
5.22468
5.28381
5.34428
5.4061
5.46935
5.53411
5.60045
5.6684
5.73798
5.80927
5.88236
5.95732
6.03421
6.11311
6.19409
6.27725
6.36266
6.45043
6.54066
6.63347
6.72896
6.82724
6.92842
7.03265
7.14006
7.2508
7.36503
7.48289
7.60456
7.73025
7.86015
7.99448
8.13347
8.27735
8.42639
8.58082
8.74087
8.90676
9.07866
9.25719
9.4458
4.72356
4.76882
4.81701
4.86713
4.91876
4.97169
5.02587
5.08133
5.13807
5.19612
5.25549
5.31622
5.37839
5.44208
5.5073
5.57408
5.64248
5.71258
5.78446
5.85818
5.93379
6.01137
6.09099
6.17275
6.25674
6.34306
6.43181
6.52307
6.61695
6.71358
6.81308
6.91558
7.02122
7.13011
7.24242
7.3583
7.47795
7.60155
7.7293
7.86139
7.99805
8.13953
8.28607
8.43792
8.59528
8.75832
8.92703
9.10074
9.27574
4.58182
4.63145
4.68048
4.72997
4.78033
4.83173
4.88432
4.93812
4.99316
5.04948
5.10711
5.16611
5.22653
5.28839
5.35173
5.41659
5.48305
5.55118
5.62104
5.69268
5.76615
5.84151
5.91888
5.99834
6.07998
6.16387
6.2501
6.33877
6.43
6.5239
6.6206
6.72021
6.82285
6.92867
7.0378
7.15042
7.26669
7.38681
7.51094
7.63931
7.77213
7.90964
8.05209
8.19974
8.35283
8.51165
8.67658
8.84852
9.03122
4.43111
4.47288
4.5175
4.56404
4.61205
4.66138
4.71196
4.76376
4.8168
4.8711
4.92668
4.98359
5.04186
5.10151
5.16259
5.22516
5.28928
5.35501
5.42239
5.49148
5.56234
5.63504
5.70968
5.78634
5.86509
5.946
6.02918
6.11472
6.20273
6.29332
6.38659
6.48267
6.58169
6.68376
6.78904
6.89768
7.00985
7.12572
7.24548
7.36933
7.49748
7.63018
7.76767
7.91023
8.05814
8.21168
8.37109
8.53605
8.70349
4.36254
4.40891
4.45522
4.50215
4.54999
4.59889
4.64891
4.70008
4.75246
4.80606
4.86094
4.9171
4.97458
5.03342
5.09369
5.15544
5.21871
5.28355
5.35002
5.41817
5.48809
5.55983
5.63348
5.70911
5.7868
5.86663
5.9487
6.0331
6.11994
6.20931
6.30134
6.39613
6.49383
6.59454
6.69841
6.8056
6.91627
7.03061
7.14878
7.27099
7.39746
7.52843
7.66417
7.80496
7.95114
8.10313
8.26155
8.42771
8.60578
4.12433
4.16526
4.20791
4.2519
4.29708
4.34335
4.39069
4.43913
4.48868
4.53938
4.59126
4.64433
4.69863
4.75423
4.81118
4.86952
4.92928
4.99052
5.0533
5.11769
5.18373
5.2515
5.32106
5.39248
5.46586
5.54127
5.61879
5.69851
5.78052
5.86493
5.95186
6.0414
6.13368
6.22881
6.32692
6.42816
6.5327
6.6407
6.75233
6.86777
6.98724
7.11097
7.23921
7.37225
7.51041
7.65408
7.8037
7.95953
8.12011
4.11685
4.15934
4.20304
4.24778
4.29347
4.34008
4.38766
4.43626
4.48592
4.53669
4.58859
4.64166
4.69597
4.75158
4.80852
4.86682
4.92654
4.98775
5.05051
5.11487
5.18088
5.2486
5.31812
5.38951
5.46286
5.53823
5.61571
5.69538
5.77735
5.86172
5.94859
6.03809
6.13031
6.22539
6.32344
6.42464
6.52912
6.63706
6.74862
6.864
6.9834
7.10705
7.23519
7.3681
7.5061
7.64961
7.79922
7.9561
8.12325
3.82884
3.87321
3.91634
3.95929
4.00254
4.04638
4.09098
4.13644
4.18285
4.23024
4.27867
4.3282
4.37888
4.43075
4.48384
4.53821
4.59391
4.651
4.70953
4.76954
4.83109
4.89424
4.95907
5.02565
5.09404
5.16432
5.23657
5.31086
5.3873
5.46597
5.54698
5.63043
5.71643
5.80508
5.89652
5.99088
6.08831
6.18896
6.29298
6.40056
6.51188
6.62714
6.74656
6.87036
6.99879
7.13212
7.27065
7.41481
7.56565
3.81724
3.85535
3.89553
3.93699
3.97942
4.02276
4.06699
4.11213
4.15823
4.20533
4.25348
4.30273
4.3531
4.40465
4.45743
4.51148
4.56686
4.62361
4.68178
4.74144
4.80262
4.86541
4.92986
4.99604
5.06403
5.13389
5.20571
5.27957
5.35556
5.43377
5.5143
5.59726
5.68275
5.77089
5.86179
5.9556
6.05245
6.1525
6.25591
6.36285
6.47349
6.58803
6.70667
6.8296
6.95702
7.08903
7.22556
7.36582
7.5062
3.59089
3.63026
3.66933
3.70871
3.74871
3.78946
3.83102
3.87346
3.91681
3.96113
4.00645
4.0528
4.10022
4.14876
4.19847
4.24937
4.30152
4.35497
4.40976
4.46595
4.52358
4.58272
4.64343
4.70576
4.7698
4.83561
4.90326
4.97283
5.0444
5.11806
5.19392
5.27206
5.35259
5.4356
5.52123
5.60959
5.70082
5.79506
5.89247
5.99318
6.09739
6.20525
6.31697
6.4327
6.55262
6.67688
6.80562
6.93928
7.08025
3.49847
3.53257
3.56857
3.60588
3.64423
3.6835
3.72368
3.76478
3.80681
3.84982
3.89381
3.93881
3.98487
4.03202
4.08031
4.12977
4.18044
4.23238
4.28563
4.34023
4.39624
4.45371
4.5127
4.57328
4.63552
4.69947
4.76522
4.83283
4.90238
4.97397
5.0477
5.12365
5.20191
5.28259
5.3658
5.45168
5.54035
5.63194
5.72661
5.8245
5.92578
6.03063
6.13922
6.25172
6.36831
6.48912
6.61418
6.74315
6.87384
3.34233
3.37819
3.41387
3.44998
3.48672
3.52424
3.56258
3.6018
3.64194
3.68301
3.72504
3.76804
3.81207
3.85715
3.90333
3.95063
3.99909
4.04877
4.0997
4.15193
4.20551
4.26048
4.31691
4.37487
4.43441
4.49559
4.55849
4.62316
4.6897
4.75818
4.82871
4.90136
4.97623
5.05341
5.13302
5.21517
5.3
5.38763
5.47821
5.57187
5.66878
5.76912
5.87306
5.98078
6.09249
6.20839
6.32876
6.45422
6.5872
3.17155
3.20218
3.23447
3.26792
3.30233
3.33763
3.3738
3.41085
3.44878
3.48761
3.52736
3.56805
3.60971
3.65239
3.6961
3.74088
3.78677
3.8338
3.88203
3.93149
3.98222
4.03427
4.08771
4.14258
4.19896
4.25689
4.31644
4.37768
4.44069
4.50554
4.57232
4.64112
4.71201
4.7851
4.86049
4.93829
5.01862
5.10161
5.18739
5.2761
5.3679
5.46297
5.56148
5.66362
5.76961
5.87965
5.99392
6.11229
6.23309
3.08325
3.11571
3.14817
3.1811
3.2147
3.24908
3.28428
3.32032
3.35722
3.395
3.43368
3.47328
3.51384
3.55537
3.59792
3.6415
3.68616
3.73194
3.77889
3.82703
3.87641
3.92708
3.9791
4.03252
4.08739
4.14379
4.20176
4.26138
4.32271
4.38584
4.45085
4.51782
4.58684
4.65799
4.73138
4.80712
4.88532
4.96612
5.04963
5.13601
5.22541
5.31801
5.41398
5.51355
5.61695
5.72446
5.83648
5.9537
6.0783
2.83833
2.86538
2.89398
2.92371
2.95438
2.98589
3.01821
3.05133
3.08524
3.11997
3.15552
3.19193
3.2292
3.26737
3.30647
3.34653
3.38758
3.42966
3.4728
3.51705
3.56243
3.609
3.6568
3.70589
3.75633
3.80816
3.86143
3.91622
3.97259
4.03061
4.09036
4.15191
4.21534
4.28073
4.34818
4.41779
4.48967
4.56393
4.6407
4.7201
4.80228
4.88742
4.97568
5.06728
5.16245
5.26149
5.36472
5.47232
5.58334
2.81239
2.84115
2.87058
2.9007
2.93153
2.96306
2.9953
3.02829
3.06204
3.09659
3.13194
3.16811
3.20513
3.24305
3.28188
3.32165
3.3624
3.40417
3.447
3.49092
3.53597
3.58219
3.62964
3.67837
3.72843
3.77987
3.83275
3.88714
3.94308
4.00068
4.05998
4.12108
4.18404
4.24895
4.3159
4.385
4.45634
4.53006
4.60625
4.68506
4.76664
4.85114
4.93876
5.02968
5.12416
5.22252
5.32526
5.43338
5.5498
2.50107
2.52847
2.55573
2.5832
2.61106
2.63943
2.66835
2.69787
2.72805
2.7589
2.79045
2.82271
2.85573
2.88953
2.92415
2.9596
2.99592
3.03314
3.07131
3.11045
3.15059
3.19177
3.23405
3.27747
3.32208
3.36791
3.41503
3.46349
3.51334
3.56465
3.6175
3.67193
3.72803
3.78587
3.84552
3.90709
3.97066
4.03633
4.10422
4.17444
4.24711
4.32238
4.4004
4.48135
4.5654
4.65278
4.74369
4.83829
4.93611
2.50156
2.52729
2.55396
2.58129
2.60918
2.63762
2.66663
2.69624
2.72648
2.75738
2.78896
2.82125
2.85429
2.88811
2.92273
2.95818
2.9945
3.03172
3.06988
3.109
3.14913
3.1903
3.23257
3.27597
3.32055
3.36637
3.41347
3.46191
3.51173
3.56302
3.61584
3.67025
3.72632
3.78413
3.84375
3.90528
3.96882
4.03445
4.10229
4.17245
4.24506
4.32025
4.39816
4.47894
4.56273
4.6497
4.73994
4.83345
4.92986
2.20134
2.22591
2.25026
2.27475
2.29955
2.32475
2.35041
2.37657
2.40328
2.43055
2.45842
2.48692
2.51607
2.5459
2.57643
2.6077
2.63972
2.67254
2.70618
2.74068
2.77605
2.81235
2.84961
2.88787
2.92718
2.96757
3.00909
3.05179
3.09571
3.14093
3.18749
3.23545
3.28488
3.33583
3.38838
3.44262
3.49862
3.55647
3.61626
3.67809
3.74206
3.80829
3.87689
3.94797
4.02165
4.09802
4.17716
4.25914
4.34442
2.16666
2.1889
2.21194
2.23559
2.25975
2.28441
2.30958
2.33527
2.3615
2.3883
2.41569
2.4437
2.47235
2.50167
2.53167
2.5624
2.59388
2.62613
2.65919
2.69309
2.72786
2.76353
2.80015
2.83775
2.87637
2.91606
2.95687
2.99882
3.04199
3.08641
3.13217
3.1793
3.22786
3.27793
3.32957
3.38286
3.43787
3.49471
3.55345
3.61418
3.67701
3.74205
3.80941
3.87918
3.95147
4.02634
4.1038
4.18361
4.26467
1.91275
1.93321
1.95383
1.97477
1.9961
2.01785
2.04005
2.06271
2.08586
2.10953
2.13372
2.15846
2.18376
2.20966
2.23617
2.26331
2.29111
2.3196
2.34881
2.37876
2.40947
2.44098
2.47332
2.50653
2.54065
2.57572
2.61176
2.64882
2.68694
2.72619
2.7666
2.80822
2.85112
2.89534
2.94095
2.98801
3.0366
3.08679
3.13866
3.1923
3.24778
3.3052
3.36466
3.42625
3.49006
3.55618
3.62471
3.69588
3.77062
1.82804
1.84658
1.86578
1.8855
1.90571
1.92637
1.94749
1.96907
1.99114
2.0137
2.03677
2.06036
2.08451
2.10921
2.13451
2.16042
2.18696
2.21415
2.24203
2.27061
2.29993
2.33001
2.36088
2.39258
2.42515
2.45862
2.49302
2.5284
2.56479
2.60225
2.64082
2.68055
2.7215
2.76371
2.80724
2.85216
2.89854
2.94645
2.99596
3.04715
3.1001
3.15491
3.21167
3.27047
3.3314
3.39457
3.46005
3.52783
3.5974
1.61472
1.63166
1.64881
1.66629
1.68413
1.70236
1.72098
1.74001
1.75948
1.7794
1.79976
1.8206
1.84192
1.86374
1.88609
1.90897
1.93242
1.95644
1.98107
2.00633
2.03223
2.05881
2.08609
2.1141
2.14288
2.17245
2.20285
2.2341
2.26626
2.29936
2.33344
2.36855
2.40473
2.44202
2.48049
2.52019
2.56117
2.6035
2.64724
2.69248
2.73927
2.78771
2.83787
2.88985
2.94374
2.99966
3.05774
3.11824
3.18193
1.48951
1.50463
1.52022
1.53621
1.55258
1.56931
1.58644
1.60395
1.62187
1.6402
1.65895
1.67813
1.69777
1.71788
1.73847
1.75955
1.78115
1.8033
1.826
1.84927
1.87314
1.89764
1.92278
1.9486
1.97513
2.00238
2.0304
2.05921
2.08885
2.11936
2.15077
2.18313
2.21648
2.25086
2.28631
2.3229
2.36068
2.3997
2.44002
2.48172
2.52486
2.56952
2.61579
2.66374
2.71348
2.76511
2.81873
2.87439
2.93181
1.3076
1.32112
1.33488
1.34893
1.36329
1.37796
1.39297
1.40833
1.42404
1.44011
1.45655
1.47339
1.49062
1.50826
1.52632
1.54483
1.56379
1.58323
1.60315
1.62358
1.64454
1.66604
1.68812
1.71079
1.73407
1.758
1.7826
1.8079
1.83392
1.8607
1.88829
1.9167
1.94598
1.97616
2.00729
2.03942
2.07258
2.10685
2.14226
2.17888
2.21677
2.256
2.29665
2.3388
2.38254
2.42797
2.47521
2.52449
2.57633
1.15248
1.16425
1.1763
1.18863
1.20125
1.21416
1.22736
1.24087
1.25469
1.26883
1.2833
1.29812
1.31329
1.32882
1.34473
1.36102
1.37772
1.39484
1.41239
1.43039
1.44885
1.46779
1.48724
1.50721
1.52772
1.54881
1.57048
1.59276
1.61569
1.63929
1.66359
1.68862
1.71442
1.74101
1.76844
1.79675
1.82598
1.85617
1.88738
1.91965
1.95305
1.98764
2.02349
2.06066
2.09925
2.13935
2.18103
2.22437
2.26922
0.991952
1.00207
1.01242
1.02302
1.03387
1.04496
1.05631
1.06791
1.07979
1.09195
1.10439
1.11713
1.13017
1.14353
1.15721
1.17123
1.18559
1.20031
1.21541
1.2309
1.24678
1.26308
1.27981
1.29699
1.31465
1.33279
1.35144
1.37061
1.39035
1.41065
1.43157
1.45311
1.47531
1.4982
1.52181
1.54617
1.57133
1.59732
1.62418
1.65197
1.68072
1.71051
1.74139
1.77342
1.80668
1.84125
1.87724
1.91478
1.95422
0.818146
0.826566
0.835138
0.843891
0.852832
0.861971
0.871312
0.88087
0.890656
0.900675
0.910929
0.921425
0.932173
0.943182
0.954459
0.966013
0.977854
0.989993
1.00244
1.01521
1.02831
1.04174
1.05554
1.06971
1.08427
1.09923
1.11461
1.13043
1.1467
1.16346
1.1807
1.19847
1.21679
1.23567
1.25514
1.27524
1.29599
1.31743
1.33959
1.36252
1.38625
1.41084
1.43633
1.46278
1.49026
1.51883
1.54855
1.57949
1.61155
0.668432
0.675136
0.682058
0.689158
0.69643
0.70387
0.711483
0.719281
0.727266
0.735439
0.743804
0.752368
0.761139
0.770124
0.779329
0.788759
0.798423
0.808332
0.818493
0.828914
0.839605
0.850575
0.861837
0.873405
0.88529
0.897505
0.910061
0.922974
0.936259
0.949935
0.964018
0.978527
0.993478
1.00889
1.02479
1.0412
1.05815
1.07566
1.09376
1.11249
1.13188
1.15197
1.1728
1.19442
1.21689
1.24026
1.2646
1.29002
1.31671
0.487567
0.492631
0.497734
0.502918
0.508213
0.513629
0.519179
0.524864
0.530681
0.536636
0.542733
0.548978
0.555376
0.561929
0.568642
0.57552
0.58257
0.589799
0.597211
0.604813
0.612611
0.620613
0.628829
0.637268
0.645937
0.654847
0.664006
0.673426
0.683117
0.693094
0.703368
0.713953
0.724861
0.736107
0.747708
0.759683
0.772049
0.784828
0.79804
0.811711
0.825866
0.840535
0.855749
0.871546
0.887967
0.905058
0.922867
0.94144
0.960742
0.337826
0.341026
0.344404
0.347921
0.351549
0.355281
0.359112
0.363036
0.367052
0.371167
0.375383
0.379702
0.384126
0.388658
0.393301
0.398059
0.402936
0.407936
0.413063
0.41832
0.423714
0.429249
0.434932
0.440767
0.446763
0.452924
0.459258
0.465771
0.472473
0.479372
0.486477
0.493797
0.501341
0.509119
0.517143
0.525425
0.53398
0.54282
0.551961
0.561419
0.571213
0.581363
0.591893
0.602828
0.614198
0.626042
0.638409
0.651392
0.665192
0.161654
0.163332
0.165008
0.166718
0.168467
0.17026
0.172093
0.173967
0.175887
0.177858
0.179878
0.181946
0.184064
0.186234
0.188459
0.190739
0.193077
0.195473
0.19793
0.20045
0.203035
0.205688
0.208411
0.211207
0.21408
0.217032
0.220067
0.223187
0.226398
0.229703
0.233107
0.236613
0.240228
0.243955
0.2478
0.25177
0.25587
0.260107
0.264489
0.269023
0.273718
0.278585
0.283635
0.28888
0.294336
0.30002
0.305958
0.312174
0.318664
-3.6204e-06
-7.2523e-06
-3.34467e-06
8.3238e-07
6.30755e-06
8.50845e-06
4.65357e-06
1.78718e-06
2.43557e-06
4.16266e-06
4.46167e-06
3.20477e-06
1.96942e-06
1.89703e-06
2.73091e-06
3.57049e-06
4.07947e-06
4.60685e-06
5.50734e-06
6.78595e-06
8.10725e-06
9.07617e-06
9.49814e-06
9.47051e-06
9.14411e-06
8.59093e-06
7.83149e-06
6.85369e-06
5.69221e-06
4.50701e-06
3.45111e-06
2.73346e-06
2.40174e-06
2.29902e-06
2.48432e-06
2.83185e-06
3.31428e-06
4.01369e-06
4.77337e-06
5.47074e-06
6.12627e-06
6.92075e-06
7.41008e-06
7.33045e-06
7.38874e-06
6.70747e-06
7.95935e-06
5.71795e-06
4.31417e-06
-0.161656
-0.163336
-0.16501
-0.166715
-0.168459
-0.170251
-0.172085
-0.17396
-0.17588
-0.177849
-0.179868
-0.181937
-0.184055
-0.186225
-0.188448
-0.190728
-0.193064
-0.195459
-0.197915
-0.200434
-0.203018
-0.205671
-0.208395
-0.211192
-0.214065
-0.217019
-0.220055
-0.223177
-0.22639
-0.229697
-0.233103
-0.236612
-0.240228
-0.243956
-0.247802
-0.251771
-0.255871
-0.260107
-0.264488
-0.26902
-0.273714
-0.27858
-0.283629
-0.288874
-0.29433
-0.300015
-0.305954
-0.312171
-0.318663
-0.337813
-0.341005
-0.344388
-0.347909
-0.351543
-0.355276
-0.3591
-0.363017
-0.367033
-0.371149
-0.375365
-0.379682
-0.384103
-0.388633
-0.393276
-0.398033
-0.402909
-0.407908
-0.413035
-0.418293
-0.423688
-0.429224
-0.434908
-0.440745
-0.446742
-0.452905
-0.459241
-0.465757
-0.472461
-0.479363
-0.48647
-0.493791
-0.501337
-0.509116
-0.517141
-0.525423
-0.533978
-0.542817
-0.551958
-0.561415
-0.571208
-0.581358
-0.591888
-0.602821
-0.614191
-0.626035
-0.638406
-0.651386
-0.665185
-0.487563
-0.49262
-0.497723
-0.502915
-0.508218
-0.513636
-0.519179
-0.524857
-0.530674
-0.536629
-0.542726
-0.548969
-0.555364
-0.561915
-0.568628
-0.575507
-0.582557
-0.589785
-0.597197
-0.6048
-0.6126
-0.620604
-0.628821
-0.637261
-0.645931
-0.654842
-0.664003
-0.673423
-0.683116
-0.693093
-0.703367
-0.713952
-0.72486
-0.736107
-0.74771
-0.759685
-0.772052
-0.784831
-0.798044
-0.811715
-0.82587
-0.840539
-0.855754
-0.871551
-0.887971
-0.905061
-0.922871
-0.941443
-0.960744
-0.668437
-0.675144
-0.682063
-0.689163
-0.696432
-0.703871
-0.711489
-0.719289
-0.727272
-0.735444
-0.743809
-0.752373
-0.761145
-0.77013
-0.779335
-0.788765
-0.798431
-0.80834
-0.818502
-0.828925
-0.839616
-0.850587
-0.86185
-0.873417
-0.885301
-0.897514
-0.910069
-0.92298
-0.936263
-0.949936
-0.964017
-0.978523
-0.993473
-1.00889
-1.02479
-1.0412
-1.05814
-1.07565
-1.09376
-1.11248
-1.13187
-1.15196
-1.17279
-1.19442
-1.21688
-1.24025
-1.2646
-1.29001
-1.31671
-0.818155
-0.826585
-0.835156
-0.843902
-0.852835
-0.861973
-0.871323
-0.880888
-0.890676
-0.900694
-0.910949
-0.921448
-0.932199
-0.94321
-0.954489
-0.966045
-0.977887
-0.990028
-1.00248
-1.01524
-1.02834
-1.04178
-1.05558
-1.06974
-1.0843
-1.09926
-1.11464
-1.13045
-1.14672
-1.16347
-1.18071
-1.19848
-1.21679
-1.23567
-1.25514
-1.27523
-1.29599
-1.31743
-1.33959
-1.36252
-1.38625
-1.41084
-1.43633
-1.46279
-1.49026
-1.51883
-1.54855
-1.57949
-1.61155
-0.991943
-1.00206
-1.01242
-1.02302
-1.03386
-1.04496
-1.05631
-1.06792
-1.0798
-1.09196
-1.10441
-1.11715
-1.13019
-1.14355
-1.15723
-1.17125
-1.18562
-1.20034
-1.21544
-1.23092
-1.24681
-1.2631
-1.27983
-1.29701
-1.31466
-1.3328
-1.35145
-1.37062
-1.39035
-1.41066
-1.43157
-1.45311
-1.47531
-1.49819
-1.5218
-1.54616
-1.57132
-1.59731
-1.62417
-1.65196
-1.68072
-1.7105
-1.74138
-1.77342
-1.80668
-1.84125
-1.87723
-1.91478
-1.95422
-1.15247
-1.16424
-1.17629
-1.18863
-1.20125
-1.21416
-1.22736
-1.24087
-1.25469
-1.26884
-1.28331
-1.29813
-1.31329
-1.32883
-1.34474
-1.36103
-1.37773
-1.39485
-1.4124
-1.4304
-1.44886
-1.4678
-1.48724
-1.50721
-1.52772
-1.5488
-1.57047
-1.59276
-1.61568
-1.63928
-1.66358
-1.68861
-1.71441
-1.741
-1.76843
-1.79674
-1.82597
-1.85616
-1.88737
-1.91964
-1.95304
-1.98763
-2.02348
-2.06066
-2.09925
-2.13934
-2.18103
-2.22437
-2.26922
-1.3076
-1.32111
-1.33488
-1.34893
-1.36329
-1.37796
-1.39297
-1.40832
-1.42403
-1.4401
-1.45655
-1.47338
-1.4906
-1.50824
-1.52631
-1.54481
-1.56377
-1.58321
-1.60313
-1.62356
-1.64452
-1.66602
-1.68809
-1.71076
-1.73405
-1.75798
-1.78257
-1.80787
-1.83389
-1.86068
-1.88826
-1.91667
-1.94595
-1.97613
-2.00726
-2.03939
-2.07256
-2.10682
-2.14224
-2.17885
-2.21675
-2.25598
-2.29663
-2.33878
-2.38252
-2.42795
-2.4752
-2.52448
-2.57632
-1.48952
-1.50464
-1.52023
-1.53621
-1.55257
-1.56931
-1.58643
-1.60395
-1.62186
-1.64019
-1.65893
-1.67812
-1.69776
-1.71786
-1.73844
-1.75953
-1.78113
-1.80327
-1.82597
-1.84924
-1.87312
-1.89761
-1.92275
-1.94857
-1.9751
-2.00235
-2.03037
-2.05918
-2.08882
-2.11933
-2.15075
-2.18311
-2.21645
-2.25083
-2.28629
-2.32288
-2.36065
-2.39967
-2.44
-2.4817
-2.52484
-2.5695
-2.61577
-2.66373
-2.71347
-2.7651
-2.81872
-2.87438
-2.93181
-1.61472
-1.63166
-1.64881
-1.66629
-1.68412
-1.70234
-1.72097
-1.74
-1.75947
-1.77938
-1.79974
-1.82058
-1.8419
-1.86372
-1.88606
-1.90894
-1.93239
-1.95641
-1.98104
-2.0063
-2.0322
-2.05877
-2.08605
-2.11407
-2.14284
-2.17242
-2.20282
-2.23407
-2.26623
-2.29933
-2.33341
-2.36853
-2.4047
-2.442
-2.48047
-2.52016
-2.56114
-2.60347
-2.64722
-2.69245
-2.73924
-2.78768
-2.83785
-2.88983
-2.94373
-2.99964
-3.05772
-3.11823
-3.18192
-1.82804
-1.84658
-1.86578
-1.8855
-1.90571
-1.92637
-1.94748
-1.96907
-1.99113
-2.01369
-2.03676
-2.06035
-2.0845
-2.1092
-2.1345
-2.1604
-2.18694
-2.21413
-2.24201
-2.27059
-2.29991
-2.32999
-2.36086
-2.39256
-2.42513
-2.4586
-2.493
-2.52838
-2.56477
-2.60223
-2.64081
-2.68054
-2.72149
-2.7637
-2.80723
-2.85216
-2.89854
-2.94644
-2.99595
-3.04714
-3.1001
-3.15491
-3.21166
-3.27046
-3.3314
-3.39456
-3.46004
-3.52782
-3.5974
-1.91274
-1.9332
-1.95382
-1.97476
-1.99609
-2.01784
-2.04004
-2.0627
-2.08586
-2.10952
-2.13371
-2.15845
-2.18375
-2.20964
-2.23615
-2.2633
-2.2911
-2.31959
-2.3488
-2.37874
-2.40945
-2.44096
-2.47331
-2.50652
-2.54064
-2.5757
-2.61174
-2.6488
-2.68693
-2.72617
-2.76658
-2.80821
-2.85111
-2.89533
-2.94094
-2.98801
-3.0366
-3.08679
-3.13866
-3.19229
-3.24777
-3.3052
-3.36466
-3.42625
-3.49005
-3.55617
-3.6247
-3.69587
-3.77061
-2.16666
-2.18889
-2.21194
-2.23559
-2.25975
-2.28441
-2.30957
-2.33526
-2.36149
-2.3883
-2.41569
-2.4437
-2.47234
-2.50166
-2.53167
-2.5624
-2.59387
-2.62613
-2.65919
-2.69309
-2.72786
-2.76353
-2.80015
-2.83775
-2.87637
-2.91607
-2.95687
-2.99883
-3.04199
-3.08642
-3.13217
-3.1793
-3.22787
-3.27793
-3.32957
-3.38286
-3.43788
-3.49472
-3.55346
-3.61419
-3.67702
-3.74206
-3.80942
-3.87919
-3.95147
-4.02635
-4.1038
-4.18361
-4.26466
-2.20136
-2.22592
-2.25027
-2.27476
-2.29956
-2.32475
-2.35041
-2.37657
-2.40328
-2.43056
-2.45843
-2.48692
-2.51607
-2.5459
-2.57643
-2.6077
-2.63972
-2.67254
-2.70618
-2.74068
-2.77606
-2.81236
-2.84962
-2.88788
-2.92719
-2.96758
-3.0091
-3.0518
-3.09573
-3.14094
-3.1875
-3.23546
-3.28489
-3.33584
-3.3884
-3.44264
-3.49864
-3.55648
-3.61627
-3.6781
-3.74207
-3.8083
-3.8769
-3.94798
-4.02166
-4.09803
-4.17715
-4.25913
-4.34442
-2.50156
-2.5273
-2.55396
-2.58129
-2.60918
-2.63763
-2.66664
-2.69625
-2.72649
-2.75739
-2.78897
-2.82127
-2.85431
-2.88813
-2.92275
-2.9582
-2.99452
-3.03174
-3.0699
-3.10902
-3.14915
-3.19033
-3.23259
-3.27599
-3.32058
-3.3664
-3.4135
-3.46194
-3.51177
-3.56306
-3.61587
-3.67028
-3.72635
-3.78416
-3.84378
-3.90531
-3.96884
-4.03448
-4.10232
-4.17248
-4.24508
-4.32027
-4.39818
-4.47895
-4.56275
-4.64971
-4.73995
-4.83346
-4.92986
-2.50107
-2.52847
-2.55572
-2.5832
-2.61106
-2.63943
-2.66835
-2.69788
-2.72805
-2.7589
-2.79045
-2.82272
-2.85574
-2.88955
-2.92416
-2.95961
-2.99594
-3.03317
-3.07133
-3.11047
-3.15062
-3.1918
-3.23408
-3.2775
-3.32211
-3.36795
-3.41507
-3.46353
-3.51338
-3.56469
-3.61753
-3.67197
-3.72806
-3.7859
-3.84555
-3.90711
-3.97068
-4.03635
-4.10424
-4.17445
-4.24712
-4.32239
-4.40042
-4.48136
-4.56541
-4.65278
-4.7437
-4.83829
-4.93611
-2.81239
-2.84114
-2.87058
-2.9007
-2.93153
-2.96306
-2.99531
-3.0283
-3.06206
-3.0966
-3.13195
-3.16812
-3.20515
-3.24306
-3.28189
-3.32166
-3.36242
-3.40419
-3.44702
-3.49094
-3.53598
-3.58221
-3.62966
-3.67839
-3.72845
-3.77989
-3.83278
-3.88716
-3.9431
-4.00069
-4.06
-4.12109
-4.18405
-4.24896
-4.3159
-4.385
-4.45634
-4.53005
-4.60625
-4.68506
-4.76663
-4.85114
-4.93875
-5.02967
-5.12415
-5.22251
-5.32525
-5.43338
-5.54979
-2.83834
-2.86538
-2.89398
-2.92371
-2.95438
-2.98589
-3.01821
-3.05133
-3.08525
-3.11998
-3.15554
-3.19194
-3.22921
-3.26738
-3.30648
-3.34654
-3.38759
-3.42967
-3.47281
-3.51705
-3.56243
-3.609
-3.6568
-3.70589
-3.75632
-3.80815
-3.86142
-3.91621
-3.97258
-4.0306
-4.09034
-4.15189
-4.21532
-4.28071
-4.34816
-4.41777
-4.48965
-4.56391
-4.64067
-4.72007
-4.80225
-4.88739
-4.97566
-5.06726
-5.16244
-5.26149
-5.36471
-5.47232
-5.58334
-3.08325
-3.11571
-3.14816
-3.1811
-3.21471
-3.24908
-3.28427
-3.32031
-3.3572
-3.39499
-3.43366
-3.47327
-3.51382
-3.55535
-3.59789
-3.64147
-3.68613
-3.73191
-3.77885
-3.82699
-3.87637
-3.92704
-3.97905
-4.03247
-4.08734
-4.14374
-4.20171
-4.26132
-4.32265
-4.38579
-4.4508
-4.51777
-4.58678
-4.65793
-4.73132
-4.80706
-4.88526
-4.96606
-5.04958
-5.13596
-5.22536
-5.31795
-5.41393
-5.51351
-5.61691
-5.72443
-5.83646
-5.95369
-6.07829
-3.17154
-3.20218
-3.23446
-3.26791
-3.30232
-3.33763
-3.3738
-3.41084
-3.44876
-3.48759
-3.52734
-3.56803
-3.6097
-3.65237
-3.69608
-3.74085
-3.78673
-3.83376
-3.88199
-3.93144
-3.98217
-4.03422
-4.08765
-4.14252
-4.19889
-4.25682
-4.31638
-4.37762
-4.44062
-4.50547
-4.57226
-4.64106
-4.71195
-4.78504
-4.86043
-4.93823
-5.01856
-5.10155
-5.18733
-5.27604
-5.36784
-5.46291
-5.56143
-5.66358
-5.76957
-5.87962
-5.9939
-6.11228
-6.23308
-3.34233
-3.37819
-3.41388
-3.44997
-3.48671
-3.52423
-3.56258
-3.6018
-3.64193
-3.683
-3.72502
-3.76803
-3.81206
-3.85714
-3.90331
-3.95061
-3.99907
-4.04875
-4.09968
-4.15191
-4.20548
-4.26045
-4.31688
-4.37483
-4.43436
-4.49555
-4.55844
-4.62311
-4.68964
-4.75813
-4.82866
-4.90131
-4.97618
-5.05336
-5.13297
-5.21513
-5.29996
-5.38759
-5.47816
-5.57182
-5.66873
-5.76907
-5.87302
-5.98075
-6.09246
-6.20836
-6.32874
-6.45421
-6.58719
-3.49847
-3.53256
-3.56857
-3.60588
-3.64422
-3.6835
-3.72368
-3.76478
-3.80682
-3.84982
-3.8938
-3.93881
-3.98487
-4.03202
-4.0803
-4.12976
-4.18043
-4.23237
-4.28562
-4.34022
-4.39623
-4.45369
-4.51268
-4.57326
-4.6355
-4.69945
-4.7652
-4.8328
-4.90235
-4.97395
-5.04767
-5.12362
-5.20188
-5.28256
-5.36577
-5.45165
-5.54032
-5.63191
-5.72658
-5.82447
-5.92574
-6.03059
-6.13918
-6.25168
-6.36827
-6.48908
-6.61415
-6.74313
-6.87383
-3.5909
-3.63027
-3.66932
-3.70871
-3.74871
-3.78945
-3.83101
-3.87345
-3.91682
-3.96114
-4.00646
-4.05281
-4.10023
-4.14878
-4.19848
-4.24939
-4.30154
-4.35498
-4.40978
-4.46597
-4.5236
-4.58274
-4.64344
-4.70577
-4.76981
-4.83562
-4.90327
-4.97283
-5.0444
-5.11806
-5.19392
-5.27207
-5.35259
-5.43561
-5.52123
-5.6096
-5.70083
-5.79507
-5.89247
-5.99319
-6.09739
-6.20525
-6.31697
-6.4327
-6.55261
-6.67687
-6.80561
-6.93928
-7.08025
-3.81726
-3.85537
-3.89553
-3.93699
-3.97943
-4.02276
-4.06698
-4.11212
-4.15822
-4.20533
-4.25348
-4.30272
-4.35309
-4.40464
-4.45743
-4.51148
-4.56685
-4.62361
-4.68179
-4.74144
-4.80263
-4.86542
-4.92986
-4.99604
-5.06403
-5.1339
-5.20572
-5.27957
-5.35555
-5.43376
-5.5143
-5.59726
-5.68276
-5.77089
-5.86179
-5.9556
-6.05246
-6.15251
-6.25592
-6.36285
-6.47349
-6.58803
-6.70667
-6.8296
-6.95701
-7.08902
-7.22555
-7.36579
-7.50618
-3.82884
-3.87322
-3.91636
-3.9593
-4.00256
-4.0464
-4.091
-4.13645
-4.18285
-4.23025
-4.27869
-4.32822
-4.37889
-4.43076
-4.48385
-4.53823
-4.59393
-4.65102
-4.70955
-4.76956
-4.83111
-4.89427
-4.9591
-5.02567
-5.09406
-5.16435
-5.23659
-5.31088
-5.38731
-5.46599
-5.547
-5.63045
-5.71645
-5.80511
-5.89655
-5.99091
-6.08835
-6.18899
-6.29302
-6.4006
-6.51191
-6.62716
-6.74658
-6.87037
-6.9988
-7.13213
-7.27065
-7.4148
-7.56564
-4.11685
-4.15933
-4.20305
-4.2478
-4.29347
-4.34009
-4.38767
-4.43627
-4.48593
-4.53669
-4.58859
-4.64167
-4.69599
-4.7516
-4.80853
-4.86683
-4.92656
-4.98778
-5.05055
-5.1149
-5.18091
-5.24864
-5.31816
-5.38956
-5.4629
-5.53828
-5.61575
-5.69542
-5.77739
-5.86176
-5.94864
-6.03813
-6.13035
-6.22543
-6.32349
-6.42469
-6.52917
-6.63711
-6.74868
-6.86405
-6.98344
-7.10709
-7.23522
-7.36813
-7.50612
-7.64962
-7.79922
-7.95609
-8.12323
-4.12434
-4.16525
-4.2079
-4.25191
-4.29708
-4.34335
-4.3907
-4.43914
-4.4887
-4.53939
-4.59126
-4.64433
-4.69864
-4.75425
-4.8112
-4.86952
-4.92928
-4.99053
-5.05333
-5.11772
-5.18376
-5.25153
-5.32109
-5.39252
-5.4659
-5.54132
-5.61884
-5.69855
-5.78056
-5.86498
-5.9519
-6.04145
-6.13372
-6.22884
-6.32696
-6.42821
-6.53276
-6.64075
-6.75238
-6.86782
-6.98729
-7.11101
-7.23925
-7.37227
-7.51042
-7.65409
-7.8037
-7.95953
-8.1201
-4.36254
-4.40892
-4.45522
-4.50214
-4.54999
-4.59888
-4.6489
-4.70008
-4.75246
-4.80607
-4.86093
-4.91708
-4.97456
-5.03341
-5.09369
-5.15543
-5.21869
-5.28353
-5.35001
-5.41818
-5.4881
-5.55984
-5.63349
-5.70911
-5.78681
-5.86665
-5.94872
-6.03311
-6.11994
-6.20931
-6.30134
-6.39614
-6.49383
-6.59454
-6.69841
-6.8056
-6.91628
-7.03062
-7.14879
-7.27101
-7.39748
-7.52845
-7.66418
-7.80496
-7.95114
-8.10312
-8.26154
-8.4277
-8.60577
-4.43112
-4.4729
-4.51752
-4.56406
-4.61208
-4.6614
-4.71197
-4.76378
-4.81682
-4.87112
-4.9267
-4.9836
-5.04185
-5.10149
-5.16258
-5.22515
-5.28927
-5.35498
-5.42236
-5.49145
-5.56232
-5.63503
-5.70967
-5.78632
-5.86506
-5.94598
-6.02917
-6.1147
-6.2027
-6.29328
-6.38655
-6.48263
-6.58164
-6.68371
-6.78899
-6.89763
-7.0098
-7.12568
-7.24544
-7.36929
-7.49745
-7.63015
-7.76765
-7.9102
-8.05811
-8.21166
-8.37106
-8.53602
-8.70348
-4.58181
-4.63144
-4.68049
-4.72998
-4.78034
-4.83176
-4.88433
-4.93812
-4.99316
-5.04949
-5.10714
-5.16614
-5.22653
-5.28837
-5.3517
-5.41657
-5.48304
-5.55117
-5.62102
-5.69264
-5.76611
-5.84148
-5.91886
-5.99832
-6.07995
-6.16383
-6.25006
-6.33873
-6.42995
-6.52385
-6.62054
-6.72014
-6.82277
-6.92858
-7.03771
-7.15033
-7.26661
-7.38673
-7.51087
-7.63925
-7.77207
-7.90959
-8.05205
-8.19969
-8.35277
-8.5116
-8.67652
-8.84847
-9.03118
-4.72355
-4.7688
-4.81701
-4.86714
-4.91876
-4.97169
-5.02588
-5.08133
-5.13806
-5.1961
-5.25547
-5.31622
-5.3784
-5.44206
-5.50725
-5.57402
-5.64243
-5.71255
-5.78443
-5.85814
-5.93374
-6.01131
-6.09093
-6.1727
-6.25671
-6.34303
-6.43177
-6.52301
-6.61689
-6.71351
-6.81302
-6.91551
-7.02113
-7.13002
-7.24232
-7.35822
-7.47787
-7.60147
-7.72922
-7.86132
-7.99799
-8.13948
-8.28603
-8.43787
-8.59522
-8.75827
-8.92697
-9.10068
-9.27569
-4.78967
-4.84255
-4.89474
-4.94727
-5.00059
-5.05489
-5.1103
-5.16688
-5.22471
-5.28383
-5.34427
-5.4061
-5.46937
-5.53414
-5.60045
-5.66836
-5.73794
-5.80924
-5.88235
-5.95731
-6.03419
-6.11308
-6.19405
-6.27721
-6.36263
-6.45042
-6.54066
-6.63345
-6.72891
-6.82717
-6.92836
-7.03259
-7.14
-7.25073
-7.36493
-7.48279
-7.60447
-7.73017
-7.86009
-7.99442
-8.13342
-8.27731
-8.42635
-8.58077
-8.74081
-8.90668
-9.07858
-9.25711
-9.44573
-5.00049
-5.04978
-5.10209
-5.15625
-5.21176
-5.26848
-5.32637
-5.38547
-5.44584
-5.50753
-5.57059
-5.63508
-5.70105
-5.76858
-5.83771
-5.90851
-5.98104
-6.05537
-6.13157
-6.20971
-6.28986
-6.37208
-6.45649
-6.54317
-6.63221
-6.72372
-6.81778
-6.9145
-7.01401
-7.11644
-7.22191
-7.33056
-7.44252
-7.55793
-7.67698
-7.79983
-7.92667
-8.0577
-8.19313
-8.33317
-8.47807
-8.62811
-8.78354
-8.94463
-9.11166
-9.28482
-9.46402
-9.64818
-9.83202
-4.98633
-5.04446
-5.10089
-5.15697
-5.2134
-5.27056
-5.32867
-5.38789
-5.44833
-5.51006
-5.57316
-5.63768
-5.70369
-5.77124
-5.8404
-5.91123
-5.9838
-6.05816
-6.1344
-6.21258
-6.29276
-6.37503
-6.45947
-6.54619
-6.63528
-6.72682
-6.82093
-6.91769
-7.01725
-7.11972
-7.22524
-7.33394
-7.44595
-7.56142
-7.68053
-7.80343
-7.93034
-8.06143
-8.19693
-8.33706
-8.48206
-8.63221
-8.78781
-8.94917
-9.11666
-9.29072
-9.4719
-9.66113
-9.86027
5.24638
5.30243
5.35903
5.41643
5.47481
5.53429
5.59498
5.65695
5.72028
5.78501
5.85119
5.91889
5.98816
6.05906
6.13165
6.206
6.28219
6.36027
6.44031
6.52237
6.60654
6.69291
6.78156
6.8726
6.96613
7.06224
7.16103
7.26263
7.36715
7.47473
7.5855
7.69962
7.81722
7.93847
8.06352
8.19257
8.32581
8.46344
8.60569
8.7528
8.90505
9.06273
9.22616
9.3957
9.57181
9.7551
9.94661
10.1486
10.3676