/*--------------------------------*- C++ -*----------------------------------*\
  =========                 |
  \\      /  F ield         | OpenFOAM: The Open Source CFD Toolbox
   \\    /   O peration     | Website:  https://openfoam.org
    \\  /    A nd           | Version:  6
     \\/     M anipulation  |
\*---------------------------------------------------------------------------*/
FoamFile
{
    version     2.0;
    format      ascii;
    class       volScalarField;
    location    "90";
    object      gradTz;
}
// * * * * * * * * * * * * * * * * * * * * * * * * * * * * * * * * * * * * * //

dimensions      [0 -1 0 1 0 0 0];

internalField   nonuniform List<scalar> 
13524
(
0
-5.81615e-18
0
7.00669e-18
0
-2.27561e-17
-7.27221e-17
5.97024e-17
-9.69579e-17
1.47051e-16
-1.3692e-16
-1.10126e-16
2.03718e-16
-1.22832e-16
-2.15032e-16
-4.87733e-17
1.5952e-16
-4.45594e-17
-9.59673e-17
-5.15402e-17
0
1.83377e-16
-1.13194e-16
-3.29009e-16
-1.42748e-16
-7.58091e-17
-4.89632e-16
2.48293e-16
9.01721e-17
0
-1.00734e-16
-1.06333e-16
0
1.18276e-16
1.24626e-16
3.98458e-16
-2.7155e-16
2.95823e-16
-4.53734e-16
0
0
0
-1.86846e-16
1.17844e-20
0
1.19103e-20
0
2.39448e-16
2.59207e-16
1.63218e-17
2.14987e-17
-2.65992e-17
0
5.00438e-17
-1.85524e-17
8.64539e-17
-1.28424e-16
8.79191e-17
2.10055e-17
4.72336e-17
2.63161e-17
0
3.19882e-17
3.49661e-17
7.61129e-17
0
8.91246e-17
4.79877e-17
-1.09078e-16
2.70131e-16
3.01526e-16
-3.78185e-16
3.29079e-16
-1.496e-16
2.96389e-16
8.04125e-17
-3.48235e-16
3.53252e-16
2.93925e-16
-3.99102e-16
4.25492e-16
-3.32375e-16
4.44303e-18
-4.98634e-16
-4.60705e-18
0
-5.86658e-16
3.0082e-16
0
-1.69125e-16
0
-8.32231e-21
-3.92728e-16
0
-2.1683e-16
0
-2.39448e-16
-2.70396e-21
1.43861e-17
-1.84101e-17
-4.93193e-18
0
-9.16605e-18
-2.2773e-17
-1.36763e-17
6.86463e-17
-9.37734e-18
-7.94087e-17
-2.36187e-17
-2.63153e-17
0
-3.19872e-17
0
-3.8058e-17
-4.12576e-17
-4.45638e-17
0
-5.15445e-17
-2.82251e-16
2.29992e-16
-6.30058e-17
-2.75085e-16
-1.56274e-16
3.72179e-16
0
-8.5205e-17
-9.01759e-17
9.53513e-17
-3.06251e-16
2.08604e-16
-1.16479e-16
5.91475e-16
-3.69407e-16
-1.3597e-16
-9.64611e-18
4.31267e-16
1.52953e-16
0
5.12933e-16
-3.49899e-16
5.66531e-16
-1.90288e-16
0
0
4.62663e-16
-4.71825e-16
7.62501e-16
0
0
2.87126e-17
-2.40303e-17
9.16923e-18
-3.84778e-17
5.04108e-17
8.47348e-17
2.7599e-17
-7.94525e-17
2.36238e-17
0
2.9109e-17
0
-1.45197e-16
1.85021e-16
-1.29337e-16
2.17285e-16
0
0
5.52338e-17
0
6.30132e-17
-6.71233e-17
-2.21005e-16
3.72248e-16
-8.04246e-17
-1.69349e-21
0
9.53603e-17
-1.048e-16
3.14994e-16
0
-1.18289e-16
-1.2464e-16
1.31267e-16
1.43072e-16
-2.85906e-16
-1.52965e-16
-4.87997e-16
8.4581e-16
-3.49943e-16
-5.66589e-16
5.83071e-16
2.06359e-16
0
2.27865e-16
2.39458e-16
-2.51662e-16
0
0
-4.93371e-18
3.21726e-17
-4.16856e-17
4.98334e-17
-5.0378e-17
-8.47004e-17
5.09322e-17
8.87329e-17
-1.1337e-16
0
9.23363e-17
-1.22881e-16
0
-1.95699e-16
3.30126e-16
-2.17242e-16
-1.9779e-16
1.48761e-16
1.71803e-16
-2.89051e-16
1.9547e-16
-1.94829e-16
0
-3.86076e-16
3.95018e-16
8.5206e-17
0
-9.53565e-17
-1.00743e-16
-1.06352e-16
0
1.18284e-16
-2.5383e-16
1.26631e-16
4.19403e-16
-2.85872e-16
1.52959e-16
1.60858e-16
-1.69125e-16
0
5.66542e-16
-5.83022e-16
-2.06351e-16
2.23525e-16
-2.14102e-16
-7.11274e-16
2.51652e-16
0
0
2.37752e-17
-2.40268e-17
0
1.13864e-17
-5.91209e-17
5.97742e-17
-7.85589e-17
7.94466e-17
-9.93063e-17
1.00454e-16
2.91057e-17
0
0
0
-1.29332e-16
-5.58258e-17
3.64507e-17
3.971e-17
2.14924e-16
3.60608e-16
-1.82711e-16
3.42256e-16
-2.07494e-16
0
0
8.52052e-17
9.01804e-17
-9.5356e-17
0
3.23235e-16
-1.08001e-16
-2.41015e-16
2.40226e-16
2.5792e-16
1.3818e-16
2.95869e-16
-3.00842e-16
1.6086e-16
1.69126e-16
0
3.79723e-16
-1.90321e-16
-4.19178e-16
6.44005e-16
0
-2.46715e-16
1.00685e-15
-9.52419e-19
2.9103e-18
-2.374e-17
2.39912e-17
0
-2.27687e-17
1.36735e-17
0
0
-8.8715e-17
6.61133e-17
0
-4.54189e-21
0
-3.49675e-17
1.57617e-16
-3.02715e-17
-3.12002e-16
1.86221e-16
-2.1213e-16
4.3076e-17
4.13385e-16
-3.08669e-16
-6.71178e-17
2.2094e-16
-2.20547e-16
3.28849e-16
1.46745e-17
-4.43382e-16
3.8532e-16
-1.97501e-16
-1.06349e-16
1.16471e-16
-2.32208e-16
-6.23306e-21
0
-6.43364e-21
-1.45397e-16
0
-1.60856e-16
1.74686e-16
-5.33444e-16
1.80989e-16
-1.96365e-16
-4.19132e-16
4.27115e-16
4.6266e-16
-7.1127e-16
0
9.52439e-19
-2.60585e-22
2.37539e-17
-2.40053e-17
0
1.13828e-17
-1.36738e-17
-6.86502e-17
6.94172e-17
0
1.22887e-16
-1.00419e-16
-1.5054e-16
1.22876e-16
3.49682e-17
0
4.12497e-17
1.83928e-16
-4.32017e-16
2.00305e-16
-2.82256e-16
4.72465e-16
-5.04155e-16
2.61947e-16
0
2.34445e-16
-5.63051e-16
2.48333e-16
-1.84165e-16
9.15034e-17
0
-1.06342e-16
0
0
-3.78462e-16
5.25129e-16
-4.09753e-16
3.03831e-21
0
1.60849e-16
-3.43824e-16
3.49906e-16
3.73693e-16
0
2.06343e-16
0
2.27851e-16
0
-3.7744e-18
0
-2.91011e-18
-2.37342e-17
5.61378e-17
-3.24964e-17
0
0
0
0
0
0
0
0
1.33066e-16
-1.3466e-16
-1.57603e-16
-5.22341e-17
-1.12591e-17
1.86212e-16
0
0
0
0
0
-2.9231e-16
-1.38815e-17
2.3415e-16
0
1.84148e-16
7.7752e-18
-1.97494e-16
3.23184e-16
-2.20153e-16
2.40971e-16
-4.98581e-16
2.57876e-16
-2.81207e-16
1.35429e-16
3.00795e-16
1.66231e-16
-3.32768e-16
-1.77773e-16
-1.86845e-16
0
-8.31809e-16
-1.32392e-17
2.21051e-16
0
-2.51657e-16
6.71051e-18
-1.06532e-17
-4.93012e-18
7.01359e-18
0
-1.13826e-17
-4.53862e-17
4.36732e-17
0
-2.10069e-17
2.36156e-17
-2.63122e-17
-2.91004e-17
1.3306e-16
-1.69621e-16
-1.95652e-16
1.18279e-16
0
-4.7989e-17
-5.15414e-17
5.52237e-17
-3.01469e-16
5.04077e-16
-5.39668e-17
8.48853e-17
-6.19287e-17
-4.78966e-16
4.26028e-16
-4.50906e-16
9.14827e-17
-1.00735e-16
-2.16837e-16
1.07961e-16
1.22689e-16
-1.20133e-16
-3.98463e-16
2.71554e-16
-4.41214e-16
4.53738e-16
-1.6085e-16
-1.69117e-16
0
0
2.02557e-16
-4.06381e-16
0
0
2.43063e-16
-2.47974e-16
9.58962e-18
-2.04547e-17
2.56276e-17
-3.9202e-17
4.16991e-17
1.13827e-17
-2.73507e-17
1.0075e-16
-1.47977e-16
1.21448e-16
-2.36158e-17
5.2629e-17
1.50558e-16
-1.54883e-16
1.80139e-16
-1.08876e-16
2.11821e-16
-1.28123e-16
4.79894e-17
2.63707e-16
-3.25356e-16
5.90425e-17
6.30079e-17
3.42227e-16
-2.78852e-16
3.86088e-16
-3.14617e-16
-8.51986e-17
9.01736e-17
9.53491e-17
1.00736e-16
0
-4.30636e-18
3.50509e-16
-1.24628e-16
-1.35992e-16
2.71592e-16
2.90804e-16
1.58181e-16
5.25742e-18
1.69118e-16
0
1.86854e-16
1.96361e-16
6.25508e-16
-2.1031e-16
4.62693e-16
-7.14935e-16
2.47991e-16
-9.53132e-19
0
1.88147e-17
-2.3998e-17
-9.16629e-18
0
1.36767e-17
-3.20867e-17
0
-2.10104e-17
0
-2.63157e-17
0
1.65079e-16
-3.14807e-16
1.46908e-16
0
-4.45641e-17
0
0
2.82252e-16
-1.70944e-16
-3.21476e-16
2.6194e-16
-7.13824e-17
0
0
-1.74101e-16
-7.55274e-18
-7.77492e-18
1.97506e-16
0
-1.12189e-16
0
0
2.67226e-16
-2.71571e-16
-1.454e-16
-3.1111e-16
1.55576e-16
0
0
-1.86848e-16
-3.98932e-16
6.12736e-16
-2.1683e-16
0
-2.43064e-16
2.47974e-16
0
-2.91272e-18
2.37739e-17
-5.62234e-17
-8.34737e-18
5.27199e-17
4.54407e-17
-4.37288e-17
-1.84892e-17
-2.10139e-17
0
-2.63196e-17
0
0
-9.97416e-22
0
1.29328e-16
-2.17275e-16
-4.79971e-17
-2.63734e-16
2.14922e-16
-5.90494e-17
1.95506e-16
-3.29109e-16
-1.46191e-16
7.23887e-17
-2.44877e-16
8.15801e-17
0
-1.9465e-16
-8.00728e-18
2.08632e-16
-2.28697e-16
1.13956e-16
0
0
1.38182e-16
0
-4.64106e-16
6.43587e-16
-8.4579e-16
1.72149e-16
3.79719e-16
-7.85656e-16
6.19247e-16
-6.43999e-16
0
-2.39454e-16
3.7706e-18
0
5.82498e-18
0
7.01714e-18
0
-1.13878e-17
-3.17351e-17
1.284e-16
-5.09325e-17
2.10132e-17
0
-8.38555e-17
2.32906e-16
-2.55978e-16
1.69666e-16
0
8.25144e-17
4.45672e-17
2.45783e-16
6.33876e-17
-2.14884e-16
0
1.26017e-16
1.34237e-16
1.4617e-16
8.27569e-17
8.75557e-17
1.77747e-16
-2.66788e-16
0
1.0074e-16
-1.06349e-16
1.12191e-16
1.18282e-16
0
1.31259e-16
-1.38177e-16
1.45403e-16
1.52957e-16
0
3.38244e-16
-1.83551e-16
3.67841e-16
0
0
4.37012e-16
-2.24454e-16
4.8251e-16
3.6759e-18
-9.53194e-19
-2.91245e-18
-4.93251e-18
-6.75536e-22
-9.16715e-18
-6.12422e-17
3.67215e-17
0
9.70403e-17
-1.16963e-17
-1.13391e-16
8.38816e-17
-1.11488e-16
-3.19892e-17
0
-3.80602e-17
-8.25143e-17
0
-2.45811e-16
4.64059e-16
-2.70143e-16
0
-1.26018e-16
-6.71201e-17
-7.13848e-17
7.93282e-17
-2.37733e-16
-8.52057e-17
9.01809e-17
-9.53543e-17
-2.1643e-21
2.19551e-21
-2.24387e-16
-3.59289e-16
2.44802e-16
-2.62522e-16
1.43066e-16
-5.76704e-16
-4.64096e-16
3.16457e-16
1.74716e-16
1.14293e-17
-3.67868e-16
0
-2.09584e-16
-6.6182e-18
4.55817e-16
-2.35928e-16
-2.55428e-16
-7.67005e-18
-7.83326e-18
4.93555e-17
-3.10134e-17
1.8332e-17
2.07868e-21
0
8.46852e-17
-8.78982e-17
2.10113e-17
2.362e-17
5.26304e-17
0
6.3974e-17
3.49688e-17
-8.15068e-17
2.00812e-16
4.45616e-17
4.79932e-17
2.1213e-16
-2.14867e-16
0
-3.22184e-18
1.30966e-16
-7.47801e-17
6.88735e-17
3.1812e-16
0
9.01728e-17
3.85319e-16
-6.04484e-16
3.14946e-16
2.24376e-16
1.1828e-16
-1.29195e-16
5.20392e-16
1.38175e-16
2.90798e-16
4.64061e-16
-4.82661e-16
3.32774e-16
-1.83551e-16
3.67834e-16
1.96358e-16
0
2.16828e-16
-2.3133e-16
2.3591e-16
0
9.52892e-19
0
-4.93129e-18
-3.21807e-17
2.33596e-17
1.13845e-17
0
-1.60411e-17
0
0
0
8.38606e-17
-1.11463e-16
1.01112e-16
-2.45053e-17
-1.84973e-16
0
-4.45624e-17
0
-1.57617e-16
1.62668e-16
0
-6.30042e-17
0
1.46171e-16
-1.48187e-16
8.4019e-17
7.34007e-18
-2.66786e-16
-9.53498e-17
1.00736e-16
0
-1.12188e-16
0
-5.00967e-21
1.35978e-16
9.64631e-18
-1.35431e-16
-3.00813e-16
-1.60852e-16
1.69113e-16
-1.77776e-16
0
-1.96361e-16
-2.0634e-16
-4.33658e-16
-2.3134e-16
-3.52325e-18
0
9.51594e-19
0
0
3.21506e-17
-3.24945e-17
0
0
0
6.00178e-17
-7.93818e-17
9.92383e-17
-1.00386e-16
0
-1.33058e-16
2.79767e-16
-1.46874e-16
1.70511e-16
1.12586e-17
-1.86201e-16
1.06052e-16
6.0737e-18
-1.14977e-16
0
1.37523e-16
-1.39395e-16
1.55104e-16
-1.57273e-16
0
0
0
-1.00725e-16
0
0
0
-1.24623e-16
0
0
0
-3.11089e-16
3.16407e-16
-1.69112e-16
-1.80653e-16
3.70742e-16
0
2.06339e-16
2.16825e-16
0
2.39443e-16
0
-8.61974e-18
-7.82949e-18
1.57402e-17
3.21535e-17
-7.33377e-17
4.12818e-17
5.90635e-17
-5.97162e-17
1.8477e-17
0
9.92394e-17
-1.00387e-16
0
-1.0108e-16
1.34652e-16
-3.80494e-17
-8.52558e-17
8.63149e-17
0
0
0
0
1.29216e-16
-1.30951e-16
-7.47756e-17
1.48163e-16
0
-1.74081e-16
1.76586e-16
-1.94602e-16
2.9821e-16
0
2.28647e-16
-2.32192e-16
2.53804e-16
-3.93825e-16
5.52746e-16
-2.85844e-16
-1.55545e-16
1.58203e-16
1.71896e-16
-1.74938e-16
-1.86834e-16
-1.99457e-16
2.03185e-16
0
0
2.3944e-16
0
-8.62567e-18
1.06626e-17
0
-3.91759e-17
3.2508e-17
0
-7.27459e-17
5.97278e-17
0
8.87092e-17
-8.9723e-17
-1.10149e-16
8.2341e-17
-3.1979e-17
7.25643e-17
8.14591e-17
-1.21016e-16
0
4.79836e-17
-5.15359e-17
5.5218e-17
0
-6.29966e-17
6.71065e-17
1.46155e-16
-1.4817e-16
2.44823e-16
-2.55646e-16
1.76594e-16
1.9461e-16
-9.67653e-17
-1.06336e-16
0
1.18268e-16
-1.24619e-16
2.67214e-16
-2.71558e-16
-1.4539e-16
1.52942e-16
1.60842e-16
1.71901e-16
2.82255e-18
3.76674e-16
3.03232e-18
-2.09564e-16
-2.23442e-16
4.52295e-16
-2.3944e-16
5.07074e-16
9.52199e-19
-1.4543e-18
-2.46507e-18
4.26747e-17
8.34359e-18
8.52525e-18
2.23835e-17
-5.17011e-17
0
-3.3848e-17
4.48578e-17
1.31553e-17
8.98003e-17
-1.27954e-16
8.48109e-17
-1.16849e-16
1.21011e-16
9.1946e-17
-1.65078e-16
1.57589e-16
-1.62639e-16
-1.21213e-16
1.85814e-16
-6.71055e-17
-7.13718e-17
1.17202e-16
-2.3768e-16
8.88926e-17
-1.76587e-16
1.94603e-16
-2.98212e-16
1.06334e-16
0
-1.18267e-16
-1.29187e-16
1.26621e-16
0
2.20598e-16
-3.03332e-16
-1.60839e-16
-1.71896e-16
-2.82484e-18
-1.86835e-16
3.10744e-18
-5.15911e-16
6.50538e-16
-7.97532e-16
-7.15554e-18
-1.29499e-16
0
1.26839e-17
-1.57586e-17
-3.5068e-18
-4.58245e-18
-5.55273e-17
5.038e-17
-8.46929e-17
6.01787e-17
-1.0503e-17
-1.18083e-17
-2.63119e-17
6.07191e-17
-4.54454e-17
1.17074e-21
7.88144e-17
-7.97815e-17
9.19619e-17
5.37593e-17
-7.43796e-17
0
0
3.1501e-17
1.37542e-16
-1.39414e-16
7.58077e-17
0
0
4.50858e-17
1.46949e-16
-1.97506e-16
0
5.60923e-17
0
-6.23126e-17
0
1.40609e-16
2.46109e-18
0
-1.63546e-16
8.18325e-17
1.80665e-16
5.92268e-18
-9.51475e-17
-3.23057e-18
2.13563e-16
-1.3494e-21
1.19722e-16
1.25825e-16
-4.76431e-19
1.45563e-18
-9.58125e-23
0
-2.04279e-17
2.63404e-17
0
8.02006e-18
-4.11693e-22
-1.05042e-17
1.18081e-17
-4.96296e-22
0
-3.19846e-17
5.5085e-17
-7.34483e-17
-8.52665e-17
6.40452e-17
-2.39939e-17
-2.57701e-17
0
-2.95208e-17
-6.30015e-17
-1.37534e-16
1.03716e-16
-3.79038e-17
0
1.74092e-16
-2.21682e-16
-1.94613e-16
4.02998e-16
-2.08593e-16
5.82371e-17
-1.75238e-16
6.23114e-17
0
0
-1.45394e-16
1.55549e-16
-1.58208e-16
2.56456e-16
-3.55601e-16
1.83913e-16
1.01283e-16
-5.1592e-16
1.05141e-16
-2.31327e-16
1.16187e-16
3.81241e-16
-7.2029e-18
1.55568e-17
6.46597e-18
-1.20056e-17
2.50182e-17
-2.06565e-17
0
0
9.24221e-18
-3.38637e-17
4.48751e-17
1.31569e-17
-1.45514e-17
8.2543e-17
-6.73473e-17
0
0
1.14247e-16
-1.92017e-16
2.32e-16
-1.07443e-16
2.95211e-17
3.15014e-17
0
1.4617e-16
-1.48187e-16
-4.02071e-17
0
0
4.76738e-17
0
0
-1.14336e-16
5.47528e-17
1.22391e-16
0
0
7.26981e-17
0
0
1.71909e-16
-1.74952e-16
1.89845e-16
-1.93328e-16
0
1.08414e-16
-4.31174e-22
0
-1.25824e-16
3.83623e-18
-3.87599e-18
0
0
0
-2.49137e-17
2.5186e-17
3.43232e-17
4.55384e-18
-3.97042e-17
0
4.19248e-17
-1.01891e-16
4.54416e-17
7.25719e-17
-9.24798e-17
0
-2.22809e-17
0
-5.15421e-17
0
-2.95212e-17
0
-3.35563e-17
1.81851e-16
-1.86082e-16
-4.20053e-17
1.27827e-16
3.77628e-18
-9.34206e-17
-1.02753e-16
1.04298e-16
0
0
0
0
0
0
0
0
0
-1.80659e-16
-9.93433e-17
3.92781e-16
-4.12753e-16
1.05143e-16
1.13923e-16
1.2153e-16
-1.23985e-16
-3.83909e-18
3.87887e-18
0
1.60897e-17
-1.62618e-17
0
2.95485e-17
-2.9875e-17
0
-4.43674e-17
9.45133e-17
-3.70556e-17
0
-5.05566e-17
6.73466e-17
1.90284e-17
0
2.22811e-17
-9.88938e-17
1.25925e-16
1.13516e-16
-2.06711e-16
1.22839e-16
-3.52162e-17
6.97085e-17
3.79052e-17
0
-4.4453e-17
8.83046e-17
0
1.02758e-16
-1.04303e-16
0
0
0
0
0
1.47918e-16
-1.50404e-16
-1.63546e-16
1.66391e-16
-1.80665e-16
2.77342e-16
0
0
-1.67671e-18
1.12228e-16
0
0
0
1.45556e-18
0
0
4.58246e-18
0
0
2.6303e-17
-3.47068e-17
0
-4.9633e-17
5.02068e-17
1.45508e-17
0
0
-1.90278e-17
0
0
7.34379e-17
-5.00732e-17
8.43658e-17
3.11666e-18
3.19978e-18
-1.67807e-16
1.42785e-16
-1.11993e-16
4.02059e-17
0
0
-4.76731e-17
1.02753e-16
4.1248e-18
-1.10078e-16
1.20487e-16
-2.49293e-16
-4.66983e-18
1.35781e-16
-1.47912e-16
1.50398e-16
0
0
0
-9.4918e-17
9.66596e-17
1.04781e-16
-1.06777e-16
0
-1.2153e-16
1.23985e-16
2.38206e-19
-7.27777e-19
1.23276e-18
-1.43342e-17
1.39687e-17
2.84601e-18
-3.41875e-18
4.01025e-18
0
0
-5.90423e-18
5.50852e-17
-1.38275e-16
2.81646e-17
4.24139e-17
-1.08655e-17
3.98908e-17
0
-1.19974e-17
0
-2.76119e-17
0
1.57505e-17
1.02327e-16
3.37635e-18
6.0327e-17
-2.21169e-16
8.338e-17
2.25428e-17
-4.96369e-17
9.87519e-17
-2.65852e-17
2.80459e-17
1.2049e-16
-2.49298e-16
1.28942e-16
3.4542e-17
3.63486e-17
3.82367e-17
0
4.22782e-17
9.0331e-17
-9.19585e-17
0
1.56368e-16
-1.06779e-16
0
5.98595e-17
0
-4.76375e-19
-1.45551e-18
-9.53697e-23
-3.50723e-18
-4.58227e-18
2.20672e-17
-3.99564e-17
1.49345e-17
-1.5009e-17
-7.58046e-18
-2.38196e-18
4.6065e-17
-2.78622e-17
2.5275e-17
-6.99549e-17
2.72113e-17
-1.03125e-17
-1.11399e-17
-2.39941e-17
-1.2885e-17
1.38055e-17
7.53717e-17
-6.14148e-17
1.67775e-17
1.78441e-17
-9.651e-17
1.18848e-16
1.08345e-16
-8.82993e-17
2.38361e-17
2.51826e-17
5.31697e-17
1.14328e-16
-1.46776e-16
9.23471e-17
0
-3.00093e-22
7.3955e-17
-1.52973e-16
1.19315e-16
-3.10135e-22
4.44416e-17
4.67095e-17
4.90878e-17
-5.1584e-17
5.42051e-17
-5.87019e-17
-3.57684e-18
1.23984e-16
-1.68055e-18
-1.23086e-18
2.70534e-18
1.75356e-18
1.25062e-17
-1.03255e-17
3.41857e-18
4.00996e-18
-1.96303e-17
2.51039e-17
3.66242e-17
2.43763e-18
-1.33127e-17
4.12673e-17
-4.24116e-17
9.51348e-18
6.32596e-17
-7.8003e-17
5.8554e-17
1.2885e-17
-1.22492e-22
-1.24943e-22
-1.57501e-17
-8.55458e-17
5.18598e-17
1.89517e-17
4.11054e-17
-1.94637e-17
-9.01877e-17
2.28738e-17
-1.4153e-22
-1.43106e-22
-8.521e-17
5.80508e-17
-9.46093e-17
-2.33491e-18
3.33489e-17
-1.10304e-16
7.51985e-17
-4.02109e-17
-8.45548e-17
-1.41171e-22
-4.67096e-17
1.5545e-18
-4.83969e-17
-1.05101e-16
-5.35213e-17
-2.37671e-16
-6.29105e-17
-2.38151e-19
0
-1.23256e-18
-1.75343e-18
-2.29091e-18
0
-3.41835e-18
-4.00972e-18
-4.62069e-18
-5.25156e-18
-3.66227e-17
3.168e-17
-4.49062e-17
3.07157e-17
0
-1.90266e-17
2.20086e-17
-8.914e-17
8.40005e-17
-6.29558e-17
-1.38053e-17
-5.98246e-17
1.4957e-17
-3.43833e-17
1.70074e-17
-3.79029e-17
-8.1309e-17
-2.3133e-17
-9.35087e-19
-2.38356e-17
-2.51824e-17
-5.31686e-17
-8.52084e-17
8.87244e-17
-2.88929e-17
-1.31271e-16
6.78891e-17
-3.63473e-17
-7.64712e-17
8.17684e-17
-8.31901e-17
1.44539e-18
-9.19552e-17
-4.98641e-17
1.0238e-16
-8.37663e-19
5.69822e-17
-5.89758e-17
1.2582e-16
1.1907e-19
0
6.16275e-19
1.75343e-18
1.13594e-17
-1.03244e-17
1.70919e-18
1.25898e-17
-1.09862e-17
7.87728e-18
5.90366e-18
-3.28883e-18
-7.90317e-18
1.13598e-17
0
-1.49449e-17
3.54114e-17
0
-1.8722e-17
4.96241e-18
4.83303e-17
-2.13667e-17
4.01809e-17
-7.55109e-17
4.37724e-17
9.47568e-18
2.0102e-17
1.06491e-17
2.25417e-17
6.05699e-17
-6.19638e-17
1.32921e-17
7.11854e-17
-5.80492e-17
3.11547e-17
-3.34011e-17
5.18239e-17
-1.75573e-17
3.82353e-17
-2.0105e-17
-6.9757e-19
6.59553e-17
0
7.44076e-17
-2.50047e-17
0
-8.70885e-19
1.18834e-16
-9.43648e-17
1.19081e-19
0
3.08165e-19
0
5.72756e-19
6.22792e-18
-4.58684e-18
1.00237e-18
1.32796e-17
-1.25509e-17
-1.47585e-18
-1.04805e-17
1.21118e-17
-1.26368e-17
1.68338e-17
2.37832e-18
-5.15601e-18
-2.57729e-17
2.92754e-17
3.29571e-17
-1.99546e-17
3.6899e-18
2.40277e-17
-1.21755e-17
8.92173e-18
4.73784e-18
-2.05519e-17
3.68168e-17
0
-1.8367e-17
5.29468e-18
5.98241e-17
-1.34962e-17
7.39166e-18
0
-3.3401e-17
5.12144e-17
-2.789e-17
-1.28818e-18
4.96037e-17
-4.29741e-17
1.00008e-16
-3.43001e-17
2.45434e-17
4.03316e-19
-4.02446e-17
-2.89153e-17
-1.58587e-17
7.81782e-17
2.97662e-20
9.73941e-19
8.07955e-19
-1.28053e-18
5.7268e-19
-3.46929e-18
-1.17294e-19
2.73063e-18
-6.06181e-18
-5.82116e-19
7.82143e-18
6.06208e-18
-1.27347e-17
7.67828e-18
0
-7.47204e-18
9.9711e-18
1.42783e-17
-1.16381e-17
6.62847e-18
7.47317e-18
-1.26212e-18
-5.7076e-18
2.09707e-18
-1.60383e-17
1.35642e-17
-2.95865e-18
-5.78309e-18
-4.72024e-19
-3.71048e-18
4.38242e-17
7.16144e-18
-2.80492e-17
7.12027e-18
1.58626e-17
-1.20151e-17
0
9.0866e-18
0
-1.03891e-17
-6.8968e-19
3.29769e-17
-2.35412e-17
1.20819e-17
-1.30971e-17
1.31372e-17
2.11473e-17
2.2673e-17
-7.39819e-18
-2.97663e-20
0
-1.54055e-19
-2.19159e-19
0
7.11357e-19
5.27069e-26
5.01179e-19
0
0
-7.37964e-19
4.7852e-23
0
9.99403e-19
-1.09269e-18
7.0043e-23
-1.28896e-18
1.39229e-18
-1.49942e-18
0
-1.72546e-18
-1.84499e-18
-3.93728e-18
4.194e-18
1.3307e-22
0
2.51268e-18
1.66021e-22
2.81748e-18
-2.97937e-18
-3.14768e-18
0
1.09028e-22
-1.10719e-22
0
-4.10146e-18
1.29486e-22
0
-4.77933e-18
0
0
0
5.83851e-18
-1.90215e-22
1.9377e-22
0
-7.11989e-18
7.48221e-18
-1.57274e-17
0
1.15583e-18
-8.30083e-19
-2.44851e-18
2.03169e-18
-3.46929e-18
2.72038e-18
2.78612e-18
-8.08928e-18
7.30694e-19
5.60768e-18
8.22171e-19
7.58847e-18
-1.69945e-17
9.50906e-18
-2.37819e-18
-9.36859e-18
1.21823e-17
7.67928e-18
-6.25851e-18
1.59127e-17
-2.19485e-17
1.56867e-18
-1.11032e-17
2.43286e-17
-4.52267e-18
-2.05513e-17
3.1723e-17
-3.09983e-17
1.16767e-17
1.59909e-17
-1.99425e-17
2.80492e-17
1.5608e-17
-5.42453e-17
-5.8372e-19
3.45462e-17
-3.6353e-17
2.3578e-17
0
-1.09177e-17
1.05763e-17
5.65557e-18
2.49315e-17
-3.84946e-17
-4.13687e-19
2.82672e-17
1.51908e-17
-7.86988e-18
9.59231e-19
-1.15107e-18
0
4.45931e-18
-4.064e-18
0
0
1.00237e-18
8.65923e-18
-1.1238e-17
0
0
0
1.66346e-17
-1.68338e-17
-1.73232e-17
1.99432e-17
-2.78478e-18
2.47202e-17
-2.50351e-17
0
1.51523e-17
-1.5353e-17
0
1.82693e-17
-2.3259e-17
-2.05519e-17
2.08435e-17
-1.73828e-17
-9.71829e-19
2.46863e-17
-6.6459e-18
-2.85814e-17
5.91451e-17
-2.28064e-17
3.3401e-17
-3.39441e-17
-3.69768e-17
3.75982e-17
4.08837e-17
-5.21638e-17
0
0
0
0
-4.18939e-19
-1.50996e-17
8.97989e-17
-1.52683e-17
1.91833e-18
-5.83475e-18
3.93735e-18
1.75343e-18
2.29091e-18
1.24558e-17
-1.2592e-17
-8.58009e-18
8.67596e-18
1.10895e-17
-5.31257e-18
2.03472e-17
8.52216e-18
-1.53575e-17
0
0
0
2.29882e-17
1.44289e-18
-2.50352e-17
0
1.47595e-17
1.65564e-17
-4.95167e-17
-1.78436e-17
0
0
0
2.25417e-17
-2.38355e-17
0
8.07935e-17
-5.50371e-17
0
0
-5.89844e-19
-5.96439e-19
0
3.82353e-17
0
0
4.51635e-17
1.4806e-18
1.53545e-18
-5.07961e-17
2.71022e-17
0
-2.90231e-17
3.33164e-17
0
-7.27729e-19
0
-1.75344e-18
-2.29092e-18
1.24562e-17
-1.25923e-17
0
0
-2.21796e-17
1.65293e-17
2.09617e-17
-3.51364e-17
3.327e-17
-6.12578e-18
-7.6128e-17
3.98873e-17
0
0
0
0
-2.95194e-17
1.57497e-17
5.11604e-17
-1.70074e-17
0
-4.11046e-17
2.03892e-17
-2.25418e-17
2.38356e-17
5.13751e-17
-7.87318e-17
-5.71636e-17
5.80498e-17
-3.11552e-17
-3.28114e-17
1.04841e-16
-7.14626e-17
-7.64712e-17
8.17684e-17
-8.31905e-17
4.58864e-17
-1.39413e-16
4.8329e-17
0
-1.09247e-16
5.6982e-17
-5.89762e-17
1.03599e-22
1.68055e-18
-1.93859e-18
-1.23265e-18
-1.75356e-18
7.92404e-18
-1.31714e-17
1.13531e-17
-1.89448e-17
-4.62078e-18
-2.74325e-17
2.24342e-17
-6.57809e-18
-7.2751e-18
-7.99598e-18
-9.81359e-23
-4.89188e-17
2.95761e-17
-5.71187e-17
-1.48827e-17
3.71878e-17
5.67536e-17
-2.79756e-17
0
1.67776e-17
-1.78441e-17
1.89518e-17
2.10029e-17
-4.26149e-17
2.16074e-17
2.38361e-17
2.61935e-17
-2.5564e-17
2.91192e-17
-2.84831e-17
-1.4749e-22
3.2812e-17
-1.04843e-16
1.07812e-16
-1.49707e-22
1.21981e-16
-1.25469e-16
1.79212e-16
-9.19565e-17
4.90879e-17
0
5.42051e-17
-5.87025e-17
2.37671e-16
-1.26764e-16
2.38171e-19
1.45551e-18
-1.06417e-17
2.98381e-17
-3.21035e-17
-4.26332e-18
2.8604e-17
-1.31512e-17
1.73528e-17
5.25184e-18
0
-2.09622e-17
6.54949e-17
1.05503e-17
-2.49276e-17
-2.17812e-22
-2.20089e-17
5.43037e-17
1.19969e-17
-2.34102e-22
-5.67532e-17
1.18107e-16
-4.56642e-17
-3.35553e-17
3.56885e-17
2.5729e-22
8.22103e-17
-1.76287e-17
-4.32141e-17
2.73185e-22
2.51826e-17
-2.65847e-17
2.80454e-17
-8.98107e-17
1.55801e-16
-6.44686e-17
6.90831e-17
-3.63479e-17
7.64725e-17
-8.1769e-17
1.25469e-16
-1.3477e-16
1.38666e-16
-4.90878e-17
0
-5.42051e-17
5.69606e-17
1.94634e-22
1.27707e-16
0
-7.27795e-19
-9.41178e-18
-4.08489e-18
1.85512e-17
2.84601e-18
6.83758e-18
0
4.621e-18
1.05043e-17
-4.96361e-17
6.33668e-17
6.07193e-17
-1.21719e-17
-1.61875e-17
9.51389e-18
1.0313e-17
0
2.39947e-17
1.28853e-17
-2.91441e-17
-1.78771e-17
4.56669e-17
5.03341e-17
-9.09274e-17
-2.24224e-17
1.38955e-16
0
2.2543e-17
7.34737e-17
-9.87519e-17
5.31707e-17
0
0
0
-3.28126e-17
-1.75149e-16
1.42931e-16
3.8237e-17
-4.02115e-17
1.70509e-16
2.85726e-18
-4.52481e-17
9.97322e-17
-1.01596e-16
1.67624e-18
-1.69187e-16
-3.0111e-16
-1.83556e-18
-4.76451e-19
0
-2.4655e-18
0
-4.58246e-18
-5.6923e-18
-3.63806e-17
2.18489e-17
0
-1.05042e-17
4.9633e-17
-6.33635e-17
0
-8.25359e-17
3.23715e-17
0
-2.06258e-17
0
-2.39945e-17
2.7262e-17
-8.13291e-17
3.10915e-17
-6.14154e-17
3.52129e-17
-1.05394e-16
0
-4.02059e-17
0
-9.01714e-17
9.73079e-17
-9.87495e-17
-1.61593e-16
1.10078e-16
-5.9137e-17
0
-1.33609e-16
-4.82296e-18
1.42928e-16
-1.52947e-16
0
-8.4556e-17
0
-9.34202e-17
0
1.04781e-16
3.30874e-18
-1.12224e-16
-3.6155e-22
-1.88627e-18
4.76458e-19
0
-9.41324e-18
8.49701e-18
-2.50174e-17
2.63479e-17
-6.83787e-18
8.02075e-18
0
3.38628e-17
-5.66834e-17
-5.5088e-17
-1.95412e-17
6.14409e-17
3.49694e-17
7.88178e-17
-1.65062e-16
8.63361e-17
0
2.57714e-17
1.41128e-16
6.23347e-18
-1.22839e-16
3.35567e-17
3.56899e-17
0
4.02068e-17
0
4.50865e-17
0
0
-5.31714e-17
1.14335e-16
6.35225e-17
-1.84703e-16
0
0
-7.26983e-17
7.64748e-17
8.04243e-17
8.45576e-17
2.69551e-16
-1.8392e-16
0
2.07955e-16
-1.08457e-16
2.26151e-16
-1.81262e-18
-3.72129e-18
-4.76474e-19
-7.79294e-18
2.94313e-18
-1.25772e-17
4.09976e-19
2.06504e-17
6.8378e-18
-4.2344e-17
3.47067e-17
5.4866e-17
-2.12508e-17
4.19248e-17
-2.66239e-17
-1.59929e-17
-1.74845e-17
0
8.52699e-17
-1.0861e-16
-2.39949e-17
0
5.82839e-17
-8.54708e-17
9.77291e-17
-1.64521e-16
-1.81851e-16
1.86082e-16
-8.04128e-17
-8.70477e-17
8.83002e-17
9.7308e-17
-4.63632e-17
-5.11273e-17
-5.60922e-17
0
-6.45962e-17
1.28939e-16
0
7.26975e-17
0
-1.60847e-16
8.73454e-17
-2.6383e-16
0
-9.81777e-17
1.06357e-22
-1.08412e-16
1.74059e-18
1.76591e-18
0
9.52919e-19
1.45568e-18
-9.41405e-18
1.55131e-17
0
0
0
8.02086e-18
0
0
-3.9564e-22
2.63143e-17
-1.45514e-17
1.59932e-17
0
7.88185e-17
2.61179e-17
2.79105e-17
2.97671e-17
-1.25925e-16
2.76126e-17
2.95212e-17
5.37742e-22
3.35564e-17
5.54466e-22
-3.79055e-17
4.02071e-17
1.74105e-16
-1.31524e-16
-4.76738e-17
2.03493e-16
-5.11325e-17
-5.82427e-17
1.75246e-16
1.26915e-16
-1.28945e-16
6.9085e-17
0
7.64746e-17
1.63548e-16
-8.18343e-17
0
1.89845e-16
-9.51485e-17
-3.12743e-16
6.50574e-16
-2.24458e-16
-1.19722e-16
0
-9.52869e-19
-1.45566e-18
-2.46553e-18
9.06835e-18
-3.66829e-17
4.55602e-17
-2.48049e-18
-3.78872e-17
0
0
-1.18085e-17
2.87658e-17
-5.5723e-17
-1.5992e-17
-7.25687e-17
1.52256e-16
-2.06292e-16
-2.79091e-17
9.31116e-17
-8.02919e-17
7.982e-17
-5.9041e-17
3.15011e-17
-3.3556e-17
1.81847e-16
-1.48174e-16
0
-2.16689e-16
2.70575e-16
-1.39164e-16
-5.03664e-17
-1.61592e-16
5.39853e-17
-5.91369e-17
0
-6.56246e-17
-1.38168e-16
0
-1.52947e-16
8.04233e-17
-3.41013e-16
-5.71464e-18
9.04925e-17
-9.8177e-17
0
3.34844e-18
-3.3837e-16
-1.1972e-16
0
-7.20275e-18
-7.83611e-18
-5.53413e-18
2.75167e-17
-4.08675e-17
9.11447e-17
1.55509e-17
-5.17262e-17
-3.9264e-17
3.97076e-17
-4.96361e-17
6.33665e-17
0
1.59923e-17
0
-7.88145e-17
1.51337e-17
1.08613e-16
-9.88905e-17
1.0015e-16
1.41124e-16
-8.54755e-17
0
-1.37543e-16
2.85581e-16
-1.48183e-16
0
4.25984e-17
4.50858e-17
-1.94622e-16
1.97506e-16
0
2.8476e-16
-2.32213e-16
0
6.56258e-17
-7.15242e-17
1.42933e-16
7.64744e-17
1.63546e-16
-8.18325e-17
0
9.3422e-17
-1.0129e-16
-6.37396e-18
3.21976e-16
2.31337e-16
-1.16195e-16
1.25825e-16
0
-2.90962e-18
0
-7.01181e-18
0
0
-1.36707e-17
-6.86271e-17
6.93939e-17
0
-7.32336e-17
1.05266e-16
-5.57148e-17
3.45523e-17
-1.39889e-16
1.52239e-16
-1.21012e-16
0
0
-1.06054e-16
1.07422e-16
0
0
0
-7.13719e-17
0
8.04055e-17
8.51899e-17
-9.01646e-17
-9.53398e-17
-1.00726e-16
-1.10499e-16
2.20143e-16
1.18267e-16
1.24617e-16
0
-2.78759e-16
1.42922e-16
1.5294e-16
0
-1.69106e-16
1.77763e-16
0
1.96349e-16
0
-2.16819e-16
1.13922e-16
2.39437e-16
-1.25824e-16
-9.52288e-19
2.90966e-18
2.37454e-17
-2.39963e-17
0
0
6.10626e-22
-1.60356e-17
7.85081e-17
9.31408e-18
-1.41751e-16
1.00399e-16
-2.90955e-17
1.65051e-16
-1.34665e-16
-3.80494e-17
4.12461e-17
0
-4.79829e-17
-5.15351e-17
0
-5.90353e-17
6.62274e-17
-1.30958e-16
7.13729e-17
-7.58027e-17
-8.04067e-17
3.70747e-18
-8.64277e-17
9.53412e-17
9.38478e-22
-9.53585e-22
2.28654e-16
-4.68736e-16
-1.00556e-21
-1.31245e-16
1.38163e-16
1.45389e-16
-1.09188e-21
-1.60841e-16
3.41009e-16
5.71376e-18
-3.7075e-16
-1.17507e-21
-2.09564e-16
2.13557e-16
2.27844e-16
3.62688e-18
-4.99628e-16
9.52288e-19
0
2.37358e-17
1.51782e-17
-7.33378e-17
4.12819e-17
2.73389e-17
1.60356e-17
-1.8477e-17
-6.76962e-17
6.60998e-17
-2.63059e-17
2.90955e-17
0
7.25581e-17
-7.34359e-17
4.12436e-17
0
4.79828e-17
-1.0605e-16
1.62636e-16
5.90353e-17
1.92212e-16
7.36766e-17
-1.39395e-16
2.30907e-16
7.13609e-18
3.63706e-18
9.39759e-17
-1.86827e-16
3.06219e-16
-2.08584e-16
1.16471e-16
4.3414e-18
-2.53806e-16
3.89109e-16
-1.3816e-16
-2.23943e-21
-2.29153e-21
1.60841e-16
-1.69105e-16
2.88886e-18
3.79593e-16
-3.89664e-16
0
2.16821e-16
-4.55684e-16
0
2.25125e-21
0
-2.91042e-18
2.37325e-17
1.51801e-17
-7.33323e-17
2.98974e-17
-1.36686e-17
-8.46591e-17
1.6636e-16
-1.00383e-16
0
2.63059e-17
0
1.33058e-16
1.04638e-17
-1.08827e-16
-4.12436e-17
-1.83888e-16
1.86201e-16
-5.28964e-21
3.05747e-18
6.23355e-18
-1.85816e-16
7.04196e-17
-2.1077e-16
0
8.39994e-17
-2.5193e-16
9.01632e-17
0
0
-2.12672e-16
1.12176e-16
-3.59226e-16
1.20139e-16
-3.98454e-16
1.28514e-16
-3.00747e-16
1.47844e-16
1.60845e-16
1.69105e-16
-1.77769e-16
-1.86834e-16
-1.96355e-16
4.15898e-16
-2.16895e-16
4.52286e-16
4.82504e-16
7.44913e-18
0
2.91044e-18
-4.93129e-18
-7.01319e-18
-4.08698e-17
2.85561e-18
5.03827e-17
1.60382e-17
0
-1.09742e-16
-9.52888e-18
1.00424e-16
1.21443e-16
-2.55979e-16
2.44879e-16
-1.46916e-16
0
0
-9.88941e-17
4.5619e-17
2.7618e-16
-1.15e-16
-4.2297e-21
0
7.13763e-17
-1.55128e-16
4.02142e-16
-1.66766e-16
0
-9.53498e-17
2.05518e-16
-3.19128e-16
4.48843e-16
-2.32219e-16
2.53832e-16
-1.26643e-16
0
1.45394e-16
-1.52952e-16
-4.87945e-16
-1.80154e-16
3.49902e-16
-1.86848e-16
1.96356e-16
-2.0634e-16
-2.16827e-16
-2.3134e-16
2.39551e-16
3.66809e-18
0
2.9121e-18
-1.19247e-21
0
9.16693e-18
0
1.36775e-17
1.60433e-17
0
1.0973e-16
-6.61153e-17
-1.10163e-16
1.11451e-16
1.33086e-16
-2.09883e-16
1.84962e-16
0
-1.39352e-16
1.86231e-16
-1.60588e-16
2.70098e-16
0
-3.22182e-18
2.68505e-16
-2.85574e-16
2.23993e-16
0
8.52017e-17
0
-3.9871e-21
-1.0477e-16
2.08599e-16
-1.16474e-16
2.32209e-16
-1.2919e-16
1.26625e-16
2.81213e-16
1.55369e-16
1.63255e-16
-1.55571e-16
1.69116e-16
3.61319e-16
5.85987e-18
0
0
0
0
2.43064e-16
7.44788e-18
0
-2.91217e-18
4.93251e-18
3.92116e-17
-4.17058e-17
1.13876e-17
1.12238e-21
-1.60437e-17
-7.85531e-17
7.94407e-17
-2.36206e-17
-2.63188e-17
-1.21468e-16
2.8802e-16
-3.14873e-16
1.08882e-16
-1.7058e-16
1.28134e-16
4.79961e-17
-5.15468e-17
-1.1046e-16
0
-6.30082e-17
0
1.46187e-16
-2.24019e-16
-8.40289e-17
8.1579e-17
-1.84181e-16
8.75792e-17
4.03067e-16
-4.25503e-16
1.07995e-16
0
-1.24633e-16
2.62522e-16
-2.81244e-16
1.40488e-16
3.11139e-16
-3.16455e-16
0
1.77781e-16
-1.86853e-16
0
-4.15937e-16
2.13576e-16
3.48768e-18
2.46603e-16
-7.55074e-16
9.53358e-19
0
2.37501e-17
-6.31912e-17
3.25167e-17
-1.13873e-17
-1.36785e-17
0
1.84886e-17
2.10132e-17
9.92757e-17
3.60689e-17
-2.32906e-16
-4.22078e-17
-1.04641e-17
1.84977e-16
0
0
-4.79947e-17
0
1.1046e-16
-1.83418e-16
5.04156e-16
-3.99493e-16
2.14202e-16
6.94045e-18
-7.32829e-17
-8.15607e-17
-1.84163e-16
-7.77487e-18
-3.97167e-18
-2.16857e-16
-8.50362e-18
3.50499e-16
0
-1.31259e-16
-1.38178e-16
0
0
3.27094e-16
-3.32782e-16
3.61331e-16
1.98696e-16
-7.85587e-16
-1.2747e-17
2.06943e-16
6.83638e-16
-4.75357e-16
-3.77087e-18
-9.5339e-19
0
0
0
0
0
0
-6.86823e-17
5.09604e-17
-2.10139e-17
-9.93057e-17
-9.75121e-18
1.11494e-16
0
0
1.19606e-16
-3.30191e-16
1.72707e-16
1.97824e-16
-2.00344e-16
-2.82302e-16
1.70988e-16
0
0
-7.48033e-17
1.48208e-16
0
-8.52072e-17
1.84186e-16
-3.81525e-16
2.98278e-16
2.16882e-16
-2.20193e-16
-1.18286e-16
0
0
1.38182e-16
2.95866e-16
-3.00839e-16