/*--------------------------------*- C++ -*----------------------------------*\
  =========                 |
  \\      /  F ield         | OpenFOAM: The Open Source CFD Toolbox
   \\    /   O peration     | Website:  https://openfoam.org
    \\  /    A nd           | Version:  6
     \\/     M anipulation  |
\*---------------------------------------------------------------------------*/
FoamFile
{
    version     2.0;
    format      ascii;
    class       volScalarField;
    location    "30";
    object      Cx;
}
// * * * * * * * * * * * * * * * * * * * * * * * * * * * * * * * * * * * * * //

dimensions      [0 1 0 0 0 0 0];

internalField   nonuniform List<scalar> 
1596
(
-3.22384
-3.25508
-3.28695
-3.31981
-3.35399
-3.38978
-3.42738
-3.46694
-3.50876
-3.55293
-3.59984
-3.64987
-3.70305
-3.75952
-3.81954
-3.88309
-3.95013
-4.02074
-4.09462
-3.14953
-3.17948
-3.21005
-3.24158
-3.27441
-3.3088
-3.34496
-3.38303
-3.42331
-3.46588
-3.51113
-3.55941
-3.61078
-3.66536
-3.7234
-3.78488
-3.84977
-3.91815
-3.98971
-3.07135
-3.10023
-3.1297
-3.16011
-3.19179
-3.22499
-3.25993
-3.29672
-3.33566
-3.37684
-3.42063
-3.46739
-3.51714
-3.57004
-3.62631
-3.68593
-3.74888
-3.81523
-3.88468
-2.98968
-3.01766
-3.04623
-3.07571
-3.10643
-3.13863
-3.17252
-3.20822
-3.24602
-3.286
-3.32853
-3.37394
-3.42227
-3.47367
-3.52836
-3.58631
-3.6475
-3.71202
-3.77955
-2.90542
-2.93265
-2.96045
-2.98915
-3.01904
-3.05038
-3.08337
-3.11812
-3.15491
-3.19383
-3.23523
-3.27943
-3.32649
-3.37653
-3.42977
-3.48619
-3.54577
-3.60858
-3.67433
-2.8199
-2.84645
-2.87356
-2.90153
-2.93067
-2.96122
-2.99337
-3.02723
-3.06309
-3.10101
-3.14135
-3.18442
-3.23027
-3.27901
-3.33087
-3.38583
-3.44387
-3.50505
-3.56908
-2.73453
-2.76039
-2.78679
-2.81403
-2.84241
-2.87216
-2.90347
-2.93644
-2.97135
-3.00827
-3.04754
-3.08947
-3.13409
-3.18154
-3.23202
-3.28551
-3.34198
-3.40152
-3.46384
-2.65047
-2.67557
-2.70119
-2.72763
-2.75518
-2.78406
-2.81445
-2.84646
-2.88036
-2.9162
-2.95433
-2.99505
-3.03838
-3.08446
-3.13348
-3.18543
-3.24029
-3.29811
-3.35864
-2.56858
-2.5928
-2.61752
-2.64305
-2.66965
-2.69754
-2.7269
-2.75784
-2.7906
-2.82526
-2.86213
-2.90151
-2.94344
-2.98803
-3.03548
-3.08577
-3.13889
-3.19488
-3.2535
-2.48898
-2.5122
-2.53591
-2.56039
-2.58592
-2.6127
-2.64091
-2.67064
-2.70214
-2.73549
-2.77098
-2.80891
-2.84931
-2.89229
-2.93805
-2.98656
-3.03781
-3.09186
-3.14845
-2.41139
-2.4335
-2.45609
-2.47942
-2.50377
-2.52933
-2.55627
-2.5847
-2.61484
-2.64676
-2.68077
-2.71714
-2.7559
-2.79716
-2.84111
-2.88774
-2.93701
-2.989
-3.04346
-2.33607
-2.35695
-2.37829
-2.40035
-2.4234
-2.44762
-2.47317
-2.50017
-2.52882
-2.5592
-2.5916
-2.62628
-2.66328
-2.7027
-2.74473
-2.78934
-2.83652
-2.88633
-2.93852
-2.26275
-2.28229
-2.30227
-2.32296
-2.34459
-2.36736
-2.39143
-2.41688
-2.44394
-2.47267
-2.50335
-2.53624
-2.57137
-2.60884
-2.64884
-2.69133
-2.73631
-2.78383
-2.83365
-2.19069
-2.20882
-2.22738
-2.24663
-2.26678
-2.28803
-2.31054
-2.33438
-2.35977
-2.38679
-2.41568
-2.44671
-2.4799
-2.51536
-2.55326
-2.59356
-2.63627
-2.68143
-2.72882
-2.11969
-2.13635
-2.15344
-2.17117
-2.18979
-2.20947
-2.23036
-2.25253
-2.27621
-2.30144
-2.3285
-2.35761
-2.38881
-2.42219
-2.45793
-2.496
-2.53638
-2.57912
-2.62402
-2.04949
-2.06465
-2.08021
-2.0964
-2.11344
-2.1315
-2.15072
-2.17119
-2.1931
-2.21652
-2.24169
-2.26884
-2.298
-2.32927
-2.3628
-2.39858
-2.43659
-2.47688
-2.51925
-1.97952
-1.99316
-2.00718
-2.02181
-2.03726
-2.05369
-2.07124
-2.08999
-2.11013
-2.13171
-2.15498
-2.18016
-2.20728
-2.23642
-2.26774
-2.30122
-2.33684
-2.37467
-2.41448
-1.90933
-1.92146
-1.93396
-1.94704
-1.96091
-1.97573
-1.99162
-2.00866
-2.02703
-2.04679
-2.06817
-2.09139
-2.11647
-2.1435
-2.17261
-2.20381
-2.23707
-2.27243
-2.30972
-1.83897
-1.8496
-1.86059
-1.87213
-1.88443
-1.89764
-1.91187
-1.92721
-1.94383
-1.96179
-1.98129
-2.00256
-2.02561
-2.05053
-2.07745
-2.10637
-2.13726
-2.17018
-2.20494
-1.76803
-1.77719
-1.7867
-1.79674
-1.8075
-1.81913
-1.83174
-1.84541
-1.86031
-1.87649
-1.89415
-1.91349
-1.93455
-1.95739
-1.98215
-2.00882
-2.03739
-2.06789
-2.10016
-1.69562
-1.70339
-1.71149
-1.72011
-1.72941
-1.73954
-1.75062
-1.7627
-1.77596
-1.79043
-1.80632
-1.82383
-1.84297
-1.86382
-1.8865
-1.91101
-1.93732
-1.96549
-1.99534
-1.62129
-1.62779
-1.63459
-1.64188
-1.64983
-1.65856
-1.6682
-1.6788
-1.69052
-1.7034
-1.71763
-1.7334
-1.75072
-1.76968
-1.79038
-1.81283
-1.837
-1.86293
-1.89047
-1.54471
-1.55004
-1.55566
-1.56176
-1.56847
-1.57594
-1.58426
-1.5935
-1.6038
-1.6152
-1.6279
-1.64205
-1.65769
-1.67487
-1.69372
-1.71423
-1.73637
-1.7602
-1.78555
-1.46548
-1.46979
-1.47439
-1.47942
-1.48505
-1.49138
-1.49853
-1.50655
-1.51558
-1.52566
-1.53695
-1.54964
-1.56373
-1.57928
-1.59643
-1.61513
-1.6354
-1.65726
-1.68056
-1.38404
-1.38815
-1.39253
-1.39733
-1.40269
-1.40872
-1.41552
-1.42314
-1.43171
-1.44128
-1.452
-1.46404
-1.47741
-1.49216
-1.50842
-1.52616
-1.54537
-1.5661
-1.58819
-1.30032
-1.30506
-1.31005
-1.31543
-1.32134
-1.32789
-1.33516
-1.34321
-1.35215
-1.36204
-1.37301
-1.38522
-1.39868
-1.41346
-1.42965
-1.44724
-1.46622
-1.48663
-1.50834
-1.21564
-1.22108
-1.22675
-1.2328
-1.23934
-1.24648
-1.2543
-1.26284
-1.27223
-1.28251
-1.2938
-1.30626
-1.3199
-1.33477
-1.35098
-1.36849
-1.38732
-1.40749
-1.42888
-1.13216
-1.13823
-1.14453
-1.15117
-1.15827
-1.16594
-1.17424
-1.18322
-1.193
-1.20359
-1.21515
-1.22779
-1.24154
-1.25645
-1.27259
-1.28997
-1.30858
-1.32844
-1.34945
-1.05139
-1.05796
-1.06473
-1.07182
-1.07934
-1.08738
-1.09602
-1.10529
-1.1153
-1.12607
-1.13774
-1.15042
-1.16413
-1.17892
-1.19487
-1.21196
-1.2302
-1.24961
-1.27009
-0.973854
-0.980732
-0.987799
-0.995164
-1.00293
-1.01118
-1.01998
-1.02936
-1.03943
-1.05021
-1.06181
-1.07436
-1.08786
-1.10235
-1.11792
-1.13456
-1.15226
-1.17105
-1.19083
-0.898839
-0.905893
-0.913122
-0.920626
-0.928498
-0.936815
-0.945636
-0.954999
-0.96499
-0.975635
-0.987042
-0.999313
-1.01246
-1.02653
-1.04159
-1.05763
-1.07465
-1.09268
-1.11163
-0.825282
-0.832435
-0.839747
-0.84731
-0.85521
-0.863516
-0.872283
-0.881545
-0.891381
-0.901813
-0.912943
-0.924862
-0.937585
-0.951147
-0.965617
-0.980984
-0.997256
-1.01445
-1.0325
-0.752682
-0.759882
-0.767225
-0.774797
-0.782673
-0.790917
-0.799578
-0.808688
-0.818316
-0.828486
-0.839287
-0.850804
-0.863049
-0.876055
-0.889888
-0.904533
-0.920006
-0.936328
-0.953435
-0.680316
-0.68755
-0.694913
-0.702481
-0.710321
-0.71849
-0.727033
-0.735978
-0.745388
-0.755282
-0.765743
-0.776846
-0.788602
-0.801041
-0.814225
-0.828141
-0.84281
-0.858254
-0.874429
-0.607023
-0.613821
-0.620733
-0.627825
-0.635158
-0.642781
-0.650734
-0.659042
-0.667759
-0.676904
-0.686549
-0.696759
-0.707545
-0.718932
-0.730974
-0.743658
-0.756999
-0.771011
-0.785644
-0.532251
-0.537977
-0.543802
-0.549782
-0.555971
-0.562412
-0.569138
-0.576171
-0.58356
-0.591318
-0.599509
-0.608189
-0.617367
-0.627065
-0.637329
-0.648146
-0.659527
-0.671482
-0.683964
-0.455802
-0.460359
-0.464998
-0.469771
-0.474719
-0.479881
-0.485284
-0.490947
-0.496911
-0.503187
-0.509831
-0.516889
-0.524369
-0.532289
-0.540689
-0.549558
-0.558907
-0.568745
-0.579031
-0.376947
-0.380464
-0.384048
-0.387742
-0.391579
-0.395591
-0.399801
-0.404223
-0.408892
-0.413816
-0.419041
-0.424606
-0.430515
-0.436786
-0.44345
-0.450498
-0.457941
-0.465786
-0.474001
-0.295768
-0.298369
-0.301023
-0.303762
-0.306613
-0.309599
-0.31274
-0.316045
-0.319543
-0.323239
-0.32717
-0.331365
-0.335829
-0.340573
-0.345625
-0.350976
-0.356635
-0.362609
-0.368873
-0.212714
-0.2145
-0.216324
-0.218208
-0.220172
-0.222234
-0.224405
-0.226694
-0.22912
-0.231689
-0.234425
-0.237349
-0.240466
-0.243784
-0.247322
-0.251074
-0.255047
-0.259247
-0.263655
-0.128242
-0.129288
-0.130358
-0.131463
-0.132617
-0.133829
-0.135106
-0.136455
-0.137886
-0.139402
-0.141019
-0.14275
-0.144595
-0.146562
-0.148661
-0.150889
-0.15325
-0.155748
-0.158373
-0.0428655
-0.0432215
-0.043585
-0.0439604
-0.0443518
-0.0447626
-0.0451952
-0.0456516
-0.0461354
-0.0466477
-0.0471938
-0.0477778
-0.0484006
-0.049064
-0.0497718
-0.050523
-0.0513195
-0.0521623
-0.0530483
0.0428424
0.0431602
0.0434858
0.0438238
0.0441779
0.0445516
0.0449473
0.0453668
0.0458136
0.0462889
0.0467976
0.0473439
0.0479285
0.0485532
0.0492216
0.0499325
0.050688
0.0514887
0.0523318
0.128218
0.129227
0.130258
0.131326
0.132443
0.133617
0.134858
0.13617
0.137564
0.139043
0.140623
0.142315
0.144123
0.146051
0.148111
0.150298
0.152619
0.155075
0.157657
0.21269
0.214438
0.216223
0.21807
0.219997
0.222022
0.224156
0.226408
0.228798
0.231329
0.234028
0.236915
0.239994
0.243273
0.246772
0.250483
0.254416
0.258573
0.262939
0.295744
0.298307
0.300923
0.303624
0.306438
0.309387
0.312491
0.31576
0.31922
0.32288
0.326774
0.330931
0.335356
0.340062
0.345074
0.350385
0.356003
0.361935
0.368157
0.376924
0.380402
0.383949
0.387605
0.391405
0.39538
0.399553
0.403938
0.40857
0.413457
0.418645
0.424172
0.430043
0.436275
0.4429
0.449908
0.457309
0.465112
0.473284
0.45578
0.460298
0.4649
0.469634
0.474545
0.47967
0.485036
0.490663
0.49659
0.502829
0.509436
0.516456
0.523897
0.531779
0.540139
0.548968
0.558276
0.568071
0.578315
0.532228
0.537914
0.543699
0.549641
0.555791
0.562193
0.568881
0.575875
0.583225
0.590945
0.599097
0.607738
0.616876
0.626534
0.636756
0.647532
0.65887
0.670781
0.683218
0.607
0.613763
0.620639
0.627697
0.634995
0.642584
0.650502
0.658775
0.667459
0.676568
0.686179
0.696354
0.707104
0.718455
0.730459
0.743105
0.756407
0.770379
0.78497
0.6803
0.687506
0.694842
0.702383
0.710196
0.718339
0.726856
0.735774
0.745158
0.755026
0.765461
0.776536
0.788265
0.800676
0.813831
0.827718
0.842356
0.857769
0.873912
0.752666
0.759841
0.76716
0.774707
0.782559
0.790778
0.799416
0.808501
0.818106
0.828251
0.839028
0.850521
0.862741
0.875721
0.889527
0.904146
0.919591
0.935885
0.952962
0.825266
0.832394
0.839681
0.84722
0.855096
0.863377
0.872121
0.881358
0.89117
0.901578
0.912684
0.924579
0.937276
0.950812
0.965257
0.980597
0.996841
1.01401
1.03203
0.898823
0.905852
0.913056
0.920536
0.928384
0.936676
0.945474
0.954813
0.96478
0.9754
0.986783
0.999029
1.01215
1.0262
1.04123
1.05724
1.07424
1.09224
1.11116
0.973839
0.980692
0.987734
0.995075
1.00282
1.01104
1.01981
1.02918
1.03922
1.04997
1.06155
1.07407
1.08755
1.10202
1.11756
1.13417
1.15184
1.1706
1.19035
1.05138
1.05792
1.06466
1.07173
1.07923
1.08725
1.09586
1.10511
1.11509
1.12584
1.13748
1.15014
1.16383
1.17859
1.19451
1.21157
1.22978
1.24917
1.26962
1.13214
1.13819
1.14446
1.15108
1.15816
1.1658
1.17408
1.18304
1.19279
1.20336
1.21489
1.22751
1.24123
1.25611
1.27223
1.28958
1.30816
1.328
1.34898
1.21562
1.22104
1.22669
1.23271
1.23922
1.24634
1.25413
1.26266
1.27202
1.28227
1.29354
1.30598
1.31959
1.33444
1.35061
1.3681
1.3869
1.40704
1.4284
1.3003
1.30502
1.30998
1.31534
1.32123
1.32775
1.335
1.34302
1.35194
1.3618
1.37275
1.38493
1.39837
1.41312
1.42929
1.44685
1.46581
1.48619
1.50786
1.38402
1.38812
1.39247
1.39725
1.40259
1.4086
1.41537
1.42298
1.43153
1.44108
1.45178
1.46379
1.47714
1.49187
1.50811
1.52582
1.54501
1.56571
1.58779
1.46547
1.46978
1.47436
1.47938
1.485
1.49133
1.49847
1.50648
1.5155
1.52557
1.53686
1.54953
1.56361
1.57916
1.59629
1.61499
1.63525
1.6571
1.68039
1.5447
1.55004
1.55566
1.56175
1.56847
1.57593
1.58426
1.59349
1.60379
1.6152
1.62789
1.64205
1.65769
1.67487
1.69372
1.71423
1.73637
1.7602
1.78555
1.62129
1.62778
1.63459
1.64188
1.64982
1.65856
1.6682
1.6788
1.69051
1.70339
1.71763
1.73339
1.75072
1.76968
1.79038
1.81283
1.837
1.86293
1.89047
1.69561
1.70339
1.71149
1.72011
1.72941
1.73954
1.75061
1.7627
1.77595
1.79043
1.80632
1.82383
1.84297
1.86381
1.8865
1.911
1.93732
1.96549
1.99534
1.76803
1.77719
1.7867
1.79674
1.8075
1.81912
1.83174
1.84541
1.86031
1.87648
1.89414
1.91349
1.93455
1.95739
1.98215
2.00882
2.03739
2.06789
2.10016
1.83896
1.8496
1.86058
1.87213
1.88443
1.89763
1.91187
1.92721
1.94383
1.96179
1.98129
2.00256
2.02561
2.05052
2.07745
2.10637
2.13726
2.17018
2.20494
1.90932
1.92145
1.93396
1.94704
1.96091
1.97572
1.99161
2.00865
2.02703
2.04679
2.06817
2.09139
2.11647
2.14349
2.17261
2.20381
2.23706
2.27243
2.30971
1.97952
1.99316
2.00718
2.02181
2.03726
2.05369
2.07124
2.08999
2.11013
2.13171
2.15498
2.18016
2.20727
2.23641
2.26774
2.30122
2.33684
2.37467
2.41448
2.04949
2.06465
2.08021
2.0964
2.11344
2.1315
2.15072
2.17119
2.1931
2.21652
2.24168
2.26883
2.298
2.32927
2.3628
2.39858
2.43659
2.47688
2.51925
2.11968
2.13635
2.15343
2.17117
2.18979
2.20947
2.23035
2.25253
2.27621
2.30144
2.32849
2.35761
2.38881
2.42219
2.45793
2.496
2.53638
2.57912
2.62402
2.19069
2.20882
2.22738
2.24662
2.26678
2.28803
2.31054
2.33438
2.35977
2.38678
2.41568
2.44671
2.4799
2.51536
2.55325
2.59356
2.63627
2.68143
2.72882
2.26274
2.28228
2.30227
2.32296
2.34459
2.36736
2.39143
2.41688
2.44394
2.47267
2.50335
2.53623
2.57137
2.60884
2.64884
2.69133
2.73631
2.78383
2.83365
2.33606
2.35694
2.37828
2.40035
2.4234
2.44761
2.47317
2.50016
2.52882
2.5592
2.59159
2.62628
2.66328
2.7027
2.74473
2.78934
2.83652
2.88633
2.93852
2.41138
2.43349
2.45608
2.47942
2.50377
2.52933
2.55627
2.5847
2.61484
2.64676
2.68077
2.71713
2.7559
2.79716
2.84111
2.88774
2.93701
2.989
3.04346
2.48897
2.51219
2.5359
2.56039
2.58592
2.6127
2.6409
2.67064
2.70214
2.73549
2.77098
2.80891
2.84931
2.89229
2.93805
2.98656
3.03781
3.09186
3.14845
2.56857
2.59279
2.61752
2.64305
2.66965
2.69754
2.7269
2.75783
2.79059
2.82525
2.86213
2.90151
2.94344
2.98803
3.03548
3.08577
3.13889
3.19488
3.2535
2.65047
2.67556
2.70119
2.72763
2.75518
2.78406
2.81445
2.84646
2.88035
2.9162
2.95433
2.99504
3.03838
3.08446
3.13348
3.18543
3.24029
3.29811
3.35864
2.73453
2.76039
2.78679
2.81403
2.84241
2.87216
2.90347
2.93644
2.97135
3.00827
3.04754
3.08946
3.13409
3.18153
3.23202
3.28551
3.34198
3.40152
3.46384
2.8199
2.84645
2.87355
2.90153
2.93067
2.96122
2.99337
3.02723
3.06309
3.10101
3.14135
3.18442
3.23026
3.27901
3.33087
3.38583
3.44387
3.50505
3.56908
2.90542
2.93265
2.96045
2.98915
3.01904
3.05038
3.08337
3.11812
3.15491
3.19383
3.23523
3.27943
3.32649
3.37653
3.42977
3.48619
3.54577
3.60858
3.67433
2.98967
3.01766
3.04622
3.07571
3.10643
3.13863
3.17252
3.20822
3.24602
3.286
3.32853
3.37394
3.42227
3.47367
3.52836
3.58631
3.6475
3.71202
3.77955
3.07135
3.10022
3.1297
3.16011
3.19179
3.22499
3.25993
3.29672
3.33566
3.37684
3.42063
3.46739
3.51714
3.57004
3.62631
3.68593
3.74888
3.81523
3.88468
3.14953
3.17948
3.21005
3.24158
3.27441
3.3088
3.34496
3.38303
3.42331
3.46588
3.51113
3.55941
3.61078
3.66536
3.7234
3.78488
3.84977
3.91815
3.98971
3.22384
3.25508
3.28695
3.31981
3.35399
3.38978
3.42738
3.46694
3.50876
3.55293
3.59984
3.64987
3.70305
3.75952
3.81954
3.88309
3.95013
4.02074
4.09462
)
;

boundaryField
{
    up
    {
        type            calculated;
        value           nonuniform List<scalar> 
84
(
-4.13197
-4.02592
-3.91986
-3.8138
-3.70775
-3.60169
-3.49563
-3.38958
-3.28352
-3.17746
-3.07141
-2.96535
-2.85929
-2.75324
-2.64718
-2.54113
-2.43507
-2.32901
-2.22296
-2.1169
-2.01084
-1.90479
-1.79873
-1.69267
-1.59935
-1.51918
-1.43944
-1.3597
-1.27997
-1.20023
-1.12049
-1.04075
-0.96101
-0.881271
-0.792017
-0.689608
-0.583584
-0.477573
-0.371543
-0.265501
-0.159451
-0.0533968
0.0526587
0.158713
0.264763
0.370805
0.476835
0.582846
0.688841
0.791328
0.880737
0.960522
1.04026
1.12
1.19974
1.27948
1.35922
1.43895
1.51869
1.59893
1.6925
1.79873
1.90479
2.01084
2.1169
2.22296
2.32901
2.43507
2.54113
2.64718
2.75324
2.85929
2.96535
3.07141
3.17746
3.28352
3.38958
3.49563
3.60169
3.70775
3.8138
3.91986
4.02592
4.13197
)
;
    }
    low
    {
        type            calculated;
        value           nonuniform List<scalar> 
84
(
-3.20818
-3.13453
-3.05691
-2.97572
-2.89188
-2.80676
-2.72178
-2.63814
-2.55672
-2.47764
-2.40062
-2.32594
-2.25329
-2.18193
-2.11166
-2.04221
-1.97299
-1.90354
-1.83393
-1.76371
-1.69197
-1.61827
-1.54225
-1.4635
-1.38189
-1.29781
-1.21273
-1.12888
-1.04784
-0.970113
-0.89498
-0.821344
-0.748686
-0.676266
-0.603236
-0.529126
-0.453276
-0.374973
-0.294288
-0.211686
-0.127632
-0.0426531
0.0426492
0.127627
0.211681
0.294282
0.374969
0.453273
0.529123
0.603232
0.676263
0.748683
0.82134
0.894977
0.970111
1.04784
1.12888
1.21272
1.29781
1.38189
1.46349
1.54224
1.61827
1.69197
1.76371
1.83393
1.90354
1.97299
2.04221
2.11166
2.18193
2.25329
2.32593
2.40062
2.47764
2.55672
2.63814
2.72178
2.80675
2.89188
2.97572
3.05691
3.13453
3.20818
)
;
    }
    left
    {
        type            calculated;
        value           nonuniform List<scalar> 
19
(
-3.25981
-3.29174
-3.32431
-3.35788
-3.39279
-3.42933
-3.4677
-3.50805
-3.55069
-3.59571
-3.6435
-3.69443
-3.74857
-3.80603
-3.86709
-3.93171
-3.99986
-4.07163
-4.14669
)
;
    }
    right
    {
        type            calculated;
        value           nonuniform List<scalar> 
19
(
3.25981
3.29174
3.32431
3.35788
3.39279
3.42933
3.4677
3.50805
3.55069
3.59571
3.6435
3.69443
3.74857
3.80603
3.86709
3.93171
3.99986
4.07163
4.14669
)
;
    }
    frontAndBackPlanes
    {
        type            empty;
    }
}


// ************************************************************************* //
