/*--------------------------------*- C++ -*----------------------------------*\
  =========                 |
  \\      /  F ield         | OpenFOAM: The Open Source CFD Toolbox
   \\    /   O peration     | Website:  https://openfoam.org
    \\  /    A nd           | Version:  6
     \\/     M anipulation  |
\*---------------------------------------------------------------------------*/
FoamFile
{
    version     2.0;
    format      ascii;
    class       volScalarField;
    location    "120";
    object      T;
}
// * * * * * * * * * * * * * * * * * * * * * * * * * * * * * * * * * * * * * //

dimensions      [0 0 0 1 0 0 0];

internalField   nonuniform List<scalar> 
1596
(
0.998254
0.9932
0.98787
0.982542
0.977225
0.971794
0.966113
0.959936
0.953095
0.945197
0.935939
0.924916
0.911072
0.892831
0.867629
0.829604
0.767722
0.659891
0.461896
0.992442
0.976666
0.961284
0.946327
0.931573
0.91666
0.901231
0.884782
0.866925
0.846977
0.824392
0.798515
0.767917
0.730698
0.684348
0.623798
0.540969
0.421809
0.239697
0.985588
0.959066
0.934382
0.91088
0.88797
0.865063
0.841626
0.817033
0.790788
0.762143
0.730526
0.695297
0.655166
0.608543
0.553558
0.486595
0.402421
0.292731
0.141924
0.978883
0.942388
0.909397
0.878485
0.848682
0.819194
0.789364
0.758504
0.726087
0.691387
0.653896
0.613078
0.567902
0.517181
0.459664
0.392925
0.313714
0.217254
0.0944489
0.97343
0.928462
0.888354
0.851155
0.815608
0.780769
0.745892
0.710266
0.673359
0.6345
0.593261
0.549216
0.50157
0.449476
0.392144
0.327975
0.254972
0.170417
0.068944
0.969925
0.918501
0.872593
0.83017
0.789863
0.750659
0.711764
0.672463
0.632234
0.590458
0.546775
0.500851
0.45207
0.399834
0.343668
0.282515
0.215155
0.140055
0.0539821
0.968436
0.912793
0.862471
0.81582
0.771581
0.72877
0.686596
0.644359
0.601555
0.55761
0.512214
0.465099
0.41578
0.363828
0.308976
0.250522
0.187725
0.119751
0.0445992
0.968513
0.910767
0.857414
0.807488
0.760035
0.714209
0.669283
0.624597
0.579675
0.533983
0.48725
0.439252
0.389595
0.337966
0.284232
0.227925
0.168607
0.105863
0.0384287
0.969713
0.911644
0.856534
0.80422
0.754188
0.705829
0.658536
0.611723
0.564957
0.517746
0.469848
0.421072
0.371086
0.319654
0.26673
0.212001
0.155225
0.0962467
0.0342536
0.971187
0.913944
0.858156
0.804292
0.752299
0.701858
0.652536
0.603854
0.555444
0.506864
0.4579
0.408389
0.358039
0.306668
0.254283
0.200676
0.145732
0.089461
0.0313457
0.972433
0.916485
0.860763
0.806059
0.752682
0.700597
0.649575
0.599269
0.549399
0.499582
0.449642
0.399439
0.348713
0.297316
0.245286
0.192483
0.138876
0.0845806
0.0292705
0.973852
0.919481
0.86426
0.809195
0.754861
0.701475
0.64901
0.597265
0.546065
0.4951
0.444233
0.393354
0.342226
0.29072
0.238891
0.186639
0.133983
0.0811024
0.0277955
0.975185
0.922513
0.868061
0.812969
0.758009
0.703603
0.649913
0.59689
0.544474
0.492436
0.440693
0.389163
0.337631
0.285978
0.234262
0.182401
0.130439
0.0785899
0.0267336
0.976109
0.92495
0.871366
0.81647
0.761139
0.705953
0.651238
0.597092
0.543575
0.490553
0.438003
0.385881
0.333992
0.282222
0.230618
0.179101
0.127715
0.076685
0.02594
0.976903
0.927023
0.874254
0.819631
0.764066
0.708246
0.652633
0.597464
0.542919
0.488967
0.435656
0.382986
0.330787
0.278948
0.227495
0.176332
0.125486
0.0751668
0.0253248
0.977645
0.928883
0.87683
0.822464
0.766706
0.710314
0.653861
0.597709
0.54216
0.487289
0.433227
0.380032
0.327562
0.275711
0.224479
0.173734
0.123465
0.0738427
0.0248134
0.978202
0.930368
0.878915
0.824752
0.76879
0.711836
0.654554
0.597421
0.540855
0.485046
0.430219
0.376503
0.323799
0.272009
0.221106
0.17091
0.121344
0.0725134
0.0243316
0.978626
0.931526
0.88054
0.826491
0.770269
0.712712
0.65456
0.596395
0.538751
0.481938
0.426289
0.372018
0.319087
0.267421
0.216973
0.167502
0.118844
0.0710004
0.0238149
0.979209
0.932819
0.882202
0.82816
0.771572
0.713307
0.654171
0.594845
0.535981
0.478014
0.421398
0.366451
0.313222
0.26168
0.211777
0.163215
0.115721
0.069147
0.0232097
0.979846
0.934201
0.883901
0.829773
0.772707
0.713605
0.653338
0.592683
0.53241
0.473086
0.415299
0.359495
0.30583
0.254355
0.205052
0.157593
0.111592
0.0667039
0.0224348
0.980314
0.935328
0.885281
0.830978
0.773323
0.71325
0.651695
0.58953
0.52764
0.466733
0.407541
0.350658
0.296375
0.244857
0.196165
0.149995
0.105889
0.0632875
0.021365
0.98074
0.936302
0.886407
0.831816
0.773433
0.712226
0.649193
0.585294
0.521535
0.458767
0.39788
0.33963
0.284465
0.232695
0.18451
0.13971
0.0978777
0.0583189
0.0197961
0.981185
0.937213
0.887345
0.832315
0.77303
0.710487
0.645744
0.579849
0.513924
0.448968
0.386039
0.326071
0.269685
0.217351
0.169421
0.125869
0.0864819
0.0507213
0.0172111
0.981616
0.937998
0.887985
0.832311
0.771894
0.707769
0.641045
0.572857
0.504438
0.436933
0.371582
0.309507
0.251516
0.198242
0.150184
0.107494
0.0702608
0.0384677
0.0116554
0.982293
0.939618
0.890214
0.834812
0.774328
0.709792
0.642323
0.573076
0.50333
0.434309
0.367379
0.303822
0.244596
0.190457
0.141991
0.0993929
0.0628454
0.0325941
0.00878702
0.98302
0.941642
0.893457
0.839194
0.779748
0.716112
0.64936
0.580595
0.51105
0.441935
0.374633
0.31051
0.25064
0.195888
0.146885
0.103788
0.0666316
0.0354577
0.0101264
0.983279
0.942436
0.894824
0.841181
0.782392
0.719424
0.653301
0.585057
0.515853
0.446836
0.379364
0.314844
0.254452
0.199185
0.149768
0.106356
0.0688798
0.0372075
0.0109763
0.983053
0.941911
0.894179
0.840609
0.782088
0.719555
0.653977
0.586308
0.517607
0.448918
0.381523
0.316816
0.256047
0.200355
0.150621
0.107066
0.0695654
0.0378445
0.0113553
0.982463
0.94033
0.891912
0.837997
0.779472
0.717241
0.652207
0.585228
0.517238
0.449146
0.382106
0.317437
0.256409
0.200298
0.150201
0.106506
0.0691229
0.0376625
0.0113935
0.981508
0.937848
0.888366
0.833863
0.775213
0.71328
0.648886
0.58278
0.515763
0.448581
0.38222
0.317856
0.256696
0.200104
0.14943
0.105359
0.0679929
0.0369137
0.0111854
0.980274
0.934781
0.884047
0.828874
0.770117
0.70858
0.644998
0.580005
0.514261
0.448344
0.383045
0.319334
0.258256
0.201145
0.149556
0.104578
0.066753
0.0358666
0.0108141
0.979068
0.931668
0.879646
0.823842
0.765085
0.704111
0.641559
0.577946
0.5138
0.44954
0.385762
0.323195
0.262618
0.205162
0.152396
0.105756
0.066446
0.03493
0.0103261
0.977761
0.928381
0.875118
0.818821
0.76027
0.700114
0.638884
0.576987
0.514834
0.452712
0.391054
0.330367
0.271117
0.214067
0.160481
0.111767
0.069614
0.0355289
0.0097929
0.976342
0.924984
0.870625
0.814076
0.756024
0.697008
0.637447
0.577642
0.517913
0.45845
0.399585
0.341677
0.284956
0.22981
0.176981
0.127327
0.0822064
0.0434776
0.0124495
0.974694
0.921025
0.865259
0.80814
0.75024
0.691977
0.63366
0.575504
0.51776
0.460563
0.404202
0.348987
0.295071
0.242676
0.192188
0.143841
0.0980634
0.0557532
0.0177085
0.972396
0.915249
0.856942
0.798074
0.739066
0.680208
0.621708
0.563698
0.506371
0.449818
0.394305
0.340127
0.287439
0.236477
0.187641
0.141122
0.0971936
0.0563047
0.0185095
0.969579
0.908239
0.846799
0.785606
0.724893
0.664815
0.605475
0.546929
0.489321
0.432706
0.37734
0.323523
0.27143
0.221345
0.173752
0.128953
0.0873812
0.0496471
0.01592
0.966986
0.901873
0.837675
0.77448
0.712345
0.651294
0.591341
0.532477
0.474806
0.418359
0.363386
0.310197
0.258976
0.210028
0.163859
0.120781
0.0812217
0.045766
0.0145442
0.964881
0.896638
0.830144
0.765298
0.70201
0.640201
0.579806
0.520762
0.463144
0.406956
0.352444
0.299912
0.249541
0.201633
0.156685
0.114994
0.0769637
0.0431479
0.0136479
0.963192
0.892473
0.824189
0.758077
0.693929
0.631578
0.570896
0.511778
0.454268
0.398354
0.34427
0.29231
0.242647
0.195569
0.151562
0.110905
0.0739832
0.0413317
0.0130345
0.961964
0.889469
0.819934
0.752962
0.688248
0.625558
0.564717
0.505587
0.448194
0.392506
0.33875
0.287211
0.238051
0.191548
0.14818
0.108213
0.0720219
0.0401355
0.0126304
0.96113
0.887612
0.817424
0.750037
0.68507
0.622247
0.561365
0.502269
0.444973
0.389437
0.335882
0.284589
0.235711
0.189523
0.146496
0.106887
0.0710677
0.0395607
0.0124398
0.961131
0.887615
0.817428
0.750041
0.685074
0.622251
0.561369
0.502272
0.444976
0.38944
0.335884
0.28459
0.235713
0.189524
0.146497
0.106888
0.0710681
0.0395609
0.0124399
0.961967
0.889477
0.819944
0.752973
0.688259
0.625569
0.564728
0.505597
0.448203
0.392514
0.338757
0.287217
0.238056
0.191552
0.148183
0.108215
0.0720238
0.0401367
0.0126308
0.963198
0.892485
0.824204
0.758095
0.693946
0.631595
0.570912
0.511792
0.454281
0.398365
0.344279
0.292318
0.242653
0.195573
0.151566
0.110908
0.0739848
0.0413326
0.0130348
0.964887
0.896653
0.830164
0.76532
0.702032
0.640223
0.579826
0.52078
0.463159
0.406968
0.352454
0.299919
0.249546
0.201636
0.156687
0.114995
0.0769639
0.0431477
0.0136478
0.966994
0.901891
0.837699
0.774507
0.712371
0.65132
0.591365
0.532497
0.474823
0.418372
0.363396
0.310203
0.258979
0.210028
0.163857
0.120778
0.0812189
0.0457637
0.0145432
0.969588
0.908258
0.846825
0.785635
0.724923
0.664844
0.605501
0.546951
0.489339
0.432718
0.377346
0.323525
0.271427
0.221338
0.173742
0.128942
0.0873705
0.049639
0.0159164
0.972405
0.91527
0.85697
0.798106
0.739098
0.680238
0.621734
0.563719
0.506386
0.449825
0.394304
0.340119
0.287422
0.236452
0.187609
0.141087
0.0971589
0.0562773
0.0184974
0.974705
0.921056
0.865307
0.808204
0.750316
0.692063
0.633756
0.575607
0.517869
0.460678
0.404323
0.349114
0.295205
0.242816
0.192335
0.143991
0.0982083
0.0558707
0.0177626
0.976354
0.925019
0.870683
0.814155
0.756123
0.697125
0.637581
0.577793
0.518079
0.458631
0.399779
0.341884
0.285175
0.230035
0.177205
0.127537
0.0823822
0.0435973
0.0124945
0.97777
0.92841
0.875165
0.818887
0.760353
0.700212
0.638997
0.577114
0.514973
0.452862
0.391214
0.330534
0.271287
0.214233
0.160632
0.11189
0.0696987
0.035571
0.00980029
0.979076
0.931693
0.879689
0.823901
0.76516
0.704201
0.641663
0.578062
0.513927
0.449675
0.385904
0.32334
0.262759
0.205292
0.152506
0.105838
0.0664973
0.0349548
0.0103325
0.980281
0.934803
0.884085
0.828927
0.770185
0.708661
0.645092
0.58011
0.514375
0.448465
0.38317
0.319459
0.258373
0.201249
0.14964
0.104639
0.0667911
0.0358865
0.0108201
0.981513
0.937867
0.888399
0.83391
0.775274
0.713353
0.648971
0.582875
0.515866
0.448689
0.382331
0.317963
0.256795
0.20019
0.149498
0.105409
0.0680254
0.0369318
0.0111913
0.982468
0.940346
0.89194
0.838038
0.779525
0.717306
0.652283
0.585313
0.51733
0.449242
0.382203
0.317531
0.256494
0.200371
0.15026
0.10655
0.069153
0.0376804
0.0113996
0.983057
0.941925
0.894203
0.840645
0.782135
0.719612
0.654044
0.586384
0.517689
0.449004
0.381609
0.316898
0.256121
0.200419
0.150674
0.107107
0.0695952
0.0378631
0.0113622
0.983282
0.942447
0.894844
0.841211
0.782433
0.719474
0.65336
0.585125
0.515926
0.446912
0.37944
0.314916
0.254519
0.199244
0.149818
0.106397
0.0689111
0.0372284
0.0109847
0.983023
0.941651
0.893473
0.839219
0.779782
0.716155
0.649412
0.580654
0.511114
0.442002
0.3747
0.310575
0.250702
0.195944
0.146935
0.10383
0.0666666
0.0354828
0.0101375
0.982293
0.939617
0.890214
0.834813
0.774329
0.709793
0.642324
0.573076
0.503328
0.434305
0.367372
0.303811
0.244583
0.190442
0.141974
0.0993765
0.0628308
0.0325834
0.00878273
0.981614
0.937992
0.887975
0.832296
0.771876
0.707745
0.641017
0.572825
0.504402
0.436894
0.371541
0.309465
0.251474
0.198202
0.150146
0.10746
0.0702339
0.0384493
0.0116478
0.981184
0.93721
0.88734
0.832308
0.773021
0.710476
0.645731
0.579835
0.51391
0.448954
0.386026
0.32606
0.269675
0.217344
0.169416
0.125867
0.0864816
0.0507219
0.0172115
0.980739
0.936299
0.886402
0.831809
0.773425
0.712217
0.649182
0.585282
0.521523
0.458756
0.39787
0.339621
0.284457
0.232689
0.184506
0.139708
0.0978768
0.0583187
0.019796
0.980313
0.935325
0.885277
0.830972
0.773315
0.713241
0.651686
0.58952
0.527631
0.466724
0.407533
0.350651
0.296369
0.244852
0.196162
0.149993
0.105888
0.0632871
0.0213648
0.979845
0.934199
0.883898
0.829768
0.772701
0.713597
0.65333
0.592675
0.532402
0.473079
0.415292
0.359489
0.305826
0.254352
0.20505
0.157591
0.111591
0.0667034
0.0224346
0.979208
0.932817
0.882198
0.828155
0.771566
0.7133
0.654164
0.594838
0.535975
0.478008
0.421392
0.366447
0.313218
0.261677
0.211775
0.163214
0.11572
0.0691466
0.0232096
0.978626
0.931524
0.880537
0.826487
0.770264
0.712707
0.654555
0.596389
0.538746
0.481934
0.426285
0.372014
0.319084
0.267419
0.216971
0.167501
0.118843
0.0710001
0.0238148
0.978202
0.930367
0.878912
0.824748
0.768786
0.711832
0.65455
0.597416
0.540851
0.485042
0.430216
0.376501
0.323797
0.272007
0.221105
0.170909
0.121344
0.0725133
0.0243315
0.977645
0.928882
0.876828
0.822461
0.766703
0.710311
0.653857
0.597706
0.542157
0.487286
0.433224
0.38003
0.327561
0.275709
0.224478
0.173734
0.123465
0.0738427
0.0248134
0.976903
0.927022
0.874252
0.819628
0.764063
0.708243
0.65263
0.597461
0.542917
0.488965
0.435654
0.382985
0.330786
0.278947
0.227495
0.176332
0.125486
0.0751667
0.0253248
0.976109
0.924949
0.871364
0.816468
0.761137
0.705951
0.651235
0.59709
0.543573
0.490552
0.438002
0.38588
0.333991
0.282221
0.230618
0.1791
0.127715
0.0766851
0.02594
0.975185
0.922512
0.86806
0.812967
0.758007
0.703601
0.649911
0.596889
0.544472
0.492435
0.440692
0.389162
0.33763
0.285978
0.234262
0.182401
0.130439
0.07859
0.0267337
0.973852
0.919481
0.864259
0.809193
0.754859
0.701474
0.649008
0.597264
0.546064
0.495099
0.444233
0.393354
0.342226
0.29072
0.238891
0.186639
0.133983
0.0811025
0.0277955
0.972432
0.916484
0.860762
0.806059
0.752681
0.700596
0.649574
0.599268
0.549398
0.499582
0.449641
0.399438
0.348713
0.297316
0.245286
0.192483
0.138876
0.0845808
0.0292705
0.971186
0.913943
0.858155
0.804291
0.752298
0.701857
0.652535
0.603853
0.555444
0.506864
0.4579
0.408389
0.358039
0.306668
0.254283
0.200676
0.145732
0.0894612
0.0313457
0.969713
0.911643
0.856534
0.804219
0.754187
0.705828
0.658535
0.611722
0.564956
0.517746
0.469847
0.421072
0.371086
0.319654
0.26673
0.212001
0.155225
0.0962468
0.0342537
0.968512
0.910766
0.857414
0.807488
0.760034
0.714208
0.669282
0.624596
0.579674
0.533983
0.487249
0.439252
0.389595
0.337966
0.284232
0.227925
0.168607
0.105863
0.0384288
0.968436
0.912792
0.86247
0.815819
0.77158
0.728769
0.686595
0.644358
0.601555
0.55761
0.512214
0.465099
0.415779
0.363828
0.308976
0.250522
0.187725
0.119751
0.0445993
0.969925
0.918501
0.872592
0.830169
0.789862
0.750658
0.711763
0.672462
0.632233
0.590458
0.546775
0.50085
0.45207
0.399834
0.343668
0.282515
0.215155
0.140055
0.0539821
0.97343
0.928462
0.888353
0.851154
0.815607
0.780768
0.745892
0.710265
0.673359
0.6345
0.59326
0.549215
0.50157
0.449476
0.392144
0.327975
0.254972
0.170417
0.068944
0.978883
0.942388
0.909397
0.878485
0.848681
0.819194
0.789364
0.758504
0.726086
0.691386
0.653895
0.613078
0.567901
0.517181
0.459664
0.392925
0.313714
0.217253
0.0944489
0.985587
0.959065
0.934382
0.910879
0.887969
0.865062
0.841625
0.817032
0.790788
0.762142
0.730526
0.695296
0.655166
0.608543
0.553557
0.486595
0.402421
0.292731
0.141924
0.992442
0.976665
0.961284
0.946327
0.931572
0.91666
0.90123
0.884782
0.866925
0.846977
0.824392
0.798515
0.767917
0.730698
0.684348
0.623798
0.540969
0.421809
0.239697
0.998254
0.9932
0.98787
0.982542
0.977225
0.971794
0.966113
0.959936
0.953095
0.945197
0.935939
0.924916
0.911072
0.89283
0.867629
0.829604
0.767722
0.659891
0.461896
)
;

boundaryField
{
    up
    {
        type            fixedValue;
        value           uniform 0;
    }
    low
    {
        type            fixedValue;
        value           uniform 1;
    }
    left
    {
        type            fixedValue;
        value           uniform 1;
    }
    right
    {
        type            fixedValue;
        value           uniform 1;
    }
    frontAndBackPlanes
    {
        type            empty;
    }
}


// ************************************************************************* //
