/*--------------------------------*- C++ -*----------------------------------*\
  =========                 |
  \\      /  F ield         | OpenFOAM: The Open Source CFD Toolbox
   \\    /   O peration     | Website:  https://openfoam.org
    \\  /    A nd           | Version:  6
     \\/     M anipulation  |
\*---------------------------------------------------------------------------*/
FoamFile
{
    version     2.0;
    format      ascii;
    class       volScalarField;
    location    "60";
    object      gradTz;
}
// * * * * * * * * * * * * * * * * * * * * * * * * * * * * * * * * * * * * * //

dimensions      [0 -1 0 1 0 0 0];

internalField   nonuniform List<scalar> 
13524
(
0
-4.0713e-17
0
4.90468e-17
0
-1.59293e-16
-5.09055e-16
4.17917e-16
-6.78705e-16
1.02936e-15
-9.58442e-16
-7.70885e-16
1.42603e-15
-8.59821e-16
-1.50522e-15
-3.41413e-16
1.11664e-15
-3.11916e-16
-6.71771e-16
-3.60781e-16
0
1.28364e-15
-7.92361e-16
-2.30306e-15
-9.99234e-16
-5.30664e-16
-3.42743e-15
1.73805e-15
6.31205e-16
0
-7.05138e-16
-7.4433e-16
0
8.27929e-16
8.72385e-16
2.78921e-15
-1.90085e-15
2.07076e-15
-3.17614e-15
0
0
0
-1.30792e-15
8.24911e-20
0
8.3372e-20
0
1.67614e-15
1.81445e-15
1.14252e-16
1.50491e-16
-1.86194e-16
0
3.50307e-16
-1.29867e-16
6.05177e-16
-8.98966e-16
6.15434e-16
1.47039e-16
3.30636e-16
1.84213e-16
0
2.23918e-16
2.44763e-16
5.3279e-16
0
6.23872e-16
3.35914e-16
-7.63546e-16
1.89091e-15
2.11068e-15
-2.6473e-15
2.30355e-15
-1.0472e-15
2.07472e-15
5.62887e-16
-2.43764e-15
2.47276e-15
2.05747e-15
-2.79371e-15
2.97845e-15
-2.32662e-15
3.11012e-17
-3.49044e-15
-3.22493e-17
0
-4.1066e-15
2.10574e-15
0
-1.18387e-15
0
-5.82562e-20
-2.74909e-15
0
-1.51781e-15
0
-1.67614e-15
-1.89277e-20
1.00703e-16
-1.2887e-16
-3.45235e-17
0
-6.41624e-17
-1.59411e-16
-9.57343e-17
4.80524e-16
-6.56414e-17
-5.55861e-16
-1.65331e-16
-1.84207e-16
0
-2.2391e-16
0
-2.66406e-16
-2.88804e-16
-3.11946e-16
0
-3.60811e-16
-1.97576e-15
1.60994e-15
-4.4104e-16
-1.9256e-15
-1.09392e-15
2.60525e-15
0
-5.96435e-16
-6.31231e-16
6.67459e-16
-2.14376e-15
1.46023e-15
-8.15352e-16
4.14032e-15
-2.58585e-15
-9.51792e-16
-6.75227e-17
3.01887e-15
1.07067e-15
0
3.59053e-15
-2.44929e-15
3.96572e-15
-1.33202e-15
0
0
3.23864e-15
-3.30277e-15
5.33751e-15
0
0
2.00988e-16
-1.68212e-16
6.41846e-17
-2.69345e-16
3.52876e-16
5.93144e-16
1.93193e-16
-5.56167e-16
1.65367e-16
0
2.03763e-16
0
-1.01638e-15
1.29515e-15
-9.05359e-16
1.521e-15
0
0
3.86637e-16
0
4.41092e-16
-4.69863e-16
-1.54704e-15
2.60574e-15
-5.62973e-16
-1.18544e-20
0
6.67522e-16
-7.33603e-16
2.20496e-15
0
-8.28024e-16
-8.72482e-16
9.18869e-16
1.0015e-15
-2.00134e-15
-1.07076e-15
-3.41598e-15
5.92067e-15
-2.4496e-15
-3.96613e-15
4.08149e-15
1.44451e-15
0
1.59506e-15
1.67621e-15
-1.76163e-15
0
0
-3.4536e-17
2.25208e-16
-2.91799e-16
3.48834e-16
-3.52646e-16
-5.92903e-16
3.56526e-16
6.21131e-16
-7.93589e-16
0
6.46354e-16
-8.60169e-16
0
-1.36989e-15
2.31088e-15
-1.52069e-15
-1.38453e-15
1.04133e-15
1.20262e-15
-2.02336e-15
1.36829e-15
-1.36381e-15
0
-2.70253e-15
2.76513e-15
5.96442e-16
0
-6.67495e-16
-7.052e-16
-7.44461e-16
0
8.27991e-16
-1.77681e-15
8.86414e-16
2.93582e-15
-2.0011e-15
1.07071e-15
1.12601e-15
-1.18387e-15
0
3.96579e-15
-4.08115e-15
-1.44445e-15
1.56468e-15
-1.49871e-15
-4.97892e-15
1.76156e-15
0
0
1.66426e-16
-1.68187e-16
0
7.97048e-17
-4.13846e-16
4.18419e-16
-5.49912e-16
5.56126e-16
-6.95144e-16
7.03181e-16
2.0374e-16
0
0
0
-9.05327e-16
-3.90781e-16
2.55155e-16
2.7797e-16
1.50447e-15
2.52426e-15
-1.27898e-15
2.39579e-15
-1.45246e-15
0
0
5.96436e-16
6.31263e-16
-6.67492e-16
0
2.26265e-15
-7.56007e-16
-1.6871e-15
1.68158e-15
1.80544e-15
9.67262e-16
2.07108e-15
-2.10589e-15
1.12602e-15
1.18389e-15
0
2.65806e-15
-1.33225e-15
-2.93425e-15
4.50804e-15
0
-1.727e-15
7.04798e-15
-6.66693e-18
2.03721e-17
-1.6618e-16
1.67939e-16
0
-1.59381e-16
9.57143e-17
0
0
-6.21005e-16
4.62793e-16
0
-3.17932e-20
0
-2.44772e-16
1.10332e-15
-2.11901e-16
-2.18401e-15
1.30355e-15
-1.48491e-15
3.01532e-16
2.89369e-15
-2.16068e-15
-4.69824e-16
1.54658e-15
-1.54383e-15
2.30194e-15
1.02721e-16
-3.10367e-15
2.69724e-15
-1.38251e-15
-7.44441e-16
8.153e-16
-1.62546e-15
-4.36314e-20
0
-4.50355e-20
-1.01778e-15
0
-1.12599e-15
1.2228e-15
-3.73411e-15
1.26692e-15
-1.37455e-15
-2.93392e-15
2.98981e-15
3.23862e-15
-4.97889e-15
0
6.66708e-18
-1.8241e-21
1.66277e-16
-1.68037e-16
0
7.96795e-17
-9.57164e-17
-4.80551e-16
4.8592e-16
0
8.60209e-16
-7.0293e-16
-1.05378e-15
8.6013e-16
2.44778e-16
0
2.88748e-16
1.2875e-15
-3.02412e-15
1.40214e-15
-1.97579e-15
3.30725e-15
-3.52909e-15
1.83363e-15
0
1.64111e-15
-3.94136e-15
1.73833e-15
-1.28915e-15
6.40524e-16
0
-7.44396e-16
0
0
-2.64923e-15
3.6759e-15
-2.86827e-15
2.12681e-20
0
1.12594e-15
-2.40677e-15
2.44934e-15
2.61585e-15
0
1.4444e-15
0
1.59496e-15
0
-2.64208e-17
0
-2.03707e-17
-1.66139e-16
3.92965e-16
-2.27475e-16
0
0
0
0
0
0
0
0
9.31464e-16
-9.4262e-16
-1.10322e-15
-3.65639e-16
-7.88138e-17
1.30348e-15
0
0
0
0
0
-2.04617e-15
-9.71705e-17
1.63905e-15
0
1.28903e-15
5.44264e-17
-1.38246e-15
2.26229e-15
-1.54107e-15
1.6868e-15
-3.49007e-15
1.80513e-15
-1.96845e-15
9.48003e-16
2.10556e-15
1.16361e-15
-2.32938e-15
-1.24441e-15
-1.30792e-15
0
-5.82266e-15
-9.26746e-17
1.54735e-15
0
-1.7616e-15
4.69736e-17
-7.45723e-17
-3.45108e-17
4.90952e-17
0
-7.96782e-17
-3.17704e-16
3.05712e-16
0
-1.47048e-16
1.65309e-16
-1.84186e-16
-2.03703e-16
9.31421e-16
-1.18735e-15
-1.36956e-15
8.27955e-16
0
-3.35923e-16
-3.6079e-16
3.86566e-16
-2.11029e-15
3.52854e-15
-3.77767e-16
5.94197e-16
-4.33501e-16
-3.35276e-15
2.9822e-15
-3.15634e-15
6.40379e-16
-7.05143e-16
-1.51786e-15
7.55726e-16
8.58826e-16
-8.40933e-16
-2.78924e-15
1.90088e-15
-3.0885e-15
3.17617e-15
-1.12595e-15
-1.18382e-15
0
0
1.4179e-15
-2.84467e-15
0
0
1.70144e-15
-1.73582e-15
6.71273e-17
-1.43183e-16
1.79394e-16
-2.74414e-16
2.91894e-16
7.96789e-17
-1.91455e-16
7.05247e-16
-1.03584e-15
8.50138e-16
-1.65311e-16
3.68403e-16
1.0539e-15
-1.08418e-15
1.26097e-15
-7.6213e-16
1.48275e-15
-8.9686e-16
3.35926e-16
1.84595e-15
-2.27749e-15
4.13297e-16
4.41056e-16
2.39559e-15
-1.95196e-15
2.70261e-15
-2.20232e-15
-5.9639e-16
6.31215e-16
6.67444e-16
7.05149e-16
0
-3.01445e-17
2.45356e-15
-8.72396e-16
-9.51942e-16
1.90114e-15
2.03563e-15
1.10727e-15
3.68019e-17
1.18383e-15
0
1.30797e-15
1.37453e-15
4.37856e-15
-1.47217e-15
3.23885e-15
-5.00454e-15
1.73593e-15
-6.67192e-18
0
1.31703e-16
-1.67986e-16
-6.4164e-17
0
9.57366e-17
-2.24607e-16
0
-1.47072e-16
0
-1.8421e-16
0
1.15555e-15
-2.20365e-15
1.02836e-15
0
-3.11949e-16
0
0
1.97576e-15
-1.19661e-15
-2.25033e-15
1.83358e-15
-4.99677e-16
0
0
-1.21871e-15
-5.28691e-17
-5.44244e-17
1.38254e-15
0
-7.85323e-16
0
0
1.87058e-15
-1.901e-15
-1.0178e-15
-2.17777e-15
1.08903e-15
0
0
-1.30793e-15
-2.79252e-15
4.28915e-15
-1.51781e-15
0
-1.70145e-15
1.73582e-15
0
-2.0389e-17
1.66417e-16
-3.93564e-16
-5.84316e-17
3.69039e-16
3.18085e-16
-3.06101e-16
-1.29425e-16
-1.47097e-16
0
-1.84237e-16
0
0
-6.98191e-21
0
9.05299e-16
-1.52093e-15
-3.3598e-16
-1.84614e-15
1.50445e-15
-4.13346e-16
1.36854e-15
-2.30376e-15
-1.02334e-15
5.06721e-16
-1.71414e-15
5.71061e-16
0
-1.36255e-15
-5.6051e-17
1.46042e-15
-1.60088e-15
7.97692e-16
0
0
9.67275e-16
0
-3.24874e-15
4.50511e-15
-5.92053e-15
1.20504e-15
2.65803e-15
-5.49959e-15
4.33473e-15
-4.50799e-15
0
-1.67618e-15
2.63942e-17
0
4.07749e-17
0
4.912e-17
0
-7.97144e-17
-2.22146e-16
8.98798e-16
-3.56528e-16
1.47092e-16
0
-5.86988e-16
1.63034e-15
-1.79185e-15
1.18766e-15
0
5.77601e-16
3.11971e-16
1.72048e-15
4.43714e-16
-1.50419e-15
0
8.82122e-16
9.39661e-16
1.02319e-15
5.79298e-16
6.1289e-16
1.24423e-15
-1.86752e-15
0
7.0518e-16
-7.4444e-16
7.8534e-16
8.27976e-16
0
9.1881e-16
-9.67242e-16
1.01782e-15
1.0707e-15
0
2.36771e-15
-1.28486e-15
2.57489e-15
0
0
3.05908e-15
-1.57118e-15
3.37757e-15
2.57313e-17
-6.67236e-18
-2.03871e-17
-3.45276e-17
-4.72875e-21
-6.417e-17
-4.28695e-16
2.57051e-16
0
6.79282e-16
-8.18743e-17
-7.93737e-16
5.87171e-16
-7.80414e-16
-2.23925e-16
0
-2.66421e-16
-5.776e-16
0
-1.72067e-15
3.24841e-15
-1.891e-15
0
-8.82128e-16
-4.69841e-16
-4.99694e-16
5.55298e-16
-1.66413e-15
-5.9644e-16
6.31266e-16
-6.6748e-16
-1.51501e-20
1.53686e-20
-1.57071e-15
-2.51502e-15
1.71361e-15
-1.83766e-15
1.00146e-15
-4.03693e-15
-3.24867e-15
2.2152e-15
1.22301e-15
8.00051e-17
-2.57508e-15
0
-1.46709e-15
-4.63274e-17
3.19072e-15
-1.6515e-15
-1.78799e-15
-5.36904e-17
-5.48328e-17
3.45488e-16
-2.17094e-16
1.28324e-16
1.45508e-20
0
5.92797e-16
-6.15287e-16
1.47079e-16
1.6534e-16
3.68412e-16
0
4.47818e-16
2.44781e-16
-5.70547e-16
1.40568e-15
3.11931e-16
3.35952e-16
1.48491e-15
-1.50407e-15
0
-2.25529e-17
9.16764e-16
-5.23461e-16
4.82114e-16
2.22684e-15
0
6.3121e-16
2.69723e-15
-4.23138e-15
2.20462e-15
1.57063e-15
8.27958e-16
-9.04362e-16
3.64274e-15
9.67224e-16
2.03559e-15
3.24842e-15
-3.37863e-15
2.32942e-15
-1.28485e-15
2.57484e-15
1.37451e-15
0
1.51779e-15
-1.61931e-15
1.65137e-15
0
6.67024e-18
0
-3.4519e-17
-2.25265e-16
1.63517e-16
7.96912e-17
0
-1.12288e-16
0
0
0
5.87024e-16
-7.80244e-16
7.07786e-16
-1.71537e-16
-1.29481e-15
0
-3.11937e-16
0
-1.10332e-15
1.13867e-15
0
-4.4103e-16
0
1.0232e-15
-1.03731e-15
5.88133e-16
5.13805e-17
-1.8675e-15
-6.67448e-16
7.05153e-16
0
-7.85313e-16
0
-3.50677e-20
9.51847e-16
6.75242e-17
-9.4802e-16
-2.10569e-15
-1.12596e-15
1.18379e-15
-1.24443e-15
0
-1.37453e-15
-1.44438e-15
-3.03561e-15
-1.61938e-15
-2.46628e-17
0
6.66116e-18
0
0
2.25054e-16
-2.27461e-16
0
0
0
4.20125e-16
-5.55673e-16
6.94668e-16
-7.02699e-16
0
-9.31407e-16
1.95837e-15
-1.02812e-15
1.19358e-15
7.88102e-17
-1.30341e-15
7.42362e-16
4.25159e-17
-8.04842e-16
0
9.62664e-16
-9.75762e-16
1.08573e-15
-1.10091e-15
0
0
0
-7.05072e-16
0
0
0
-8.72359e-16
0
0
0
-2.17762e-15
2.21485e-15
-1.18379e-15
-1.26457e-15
2.59519e-15
0
1.44437e-15
1.51778e-15
0
1.6761e-15
0
-6.03382e-17
-5.48064e-17
1.10181e-16
2.25075e-16
-5.13364e-16
2.88973e-16
4.13445e-16
-4.18013e-16
1.29339e-16
0
6.94676e-16
-7.02707e-16
0
-7.07559e-16
9.42566e-16
-2.66346e-16
-5.96791e-16
6.04204e-16
0
0
0
0
9.04515e-16
-9.16656e-16
-5.23429e-16
1.03714e-15
0
-1.21857e-15
1.2361e-15
-1.36222e-15
2.08747e-15
0
1.60053e-15
-1.62534e-15
1.77663e-15
-2.75678e-15
3.86922e-15
-2.00091e-15
-1.08881e-15
1.10742e-15
1.20327e-15
-1.22457e-15
-1.30784e-15
-1.3962e-15
1.42229e-15
0
0
1.67608e-15
0
-6.03797e-17
7.46385e-17
0
-2.74231e-16
2.27556e-16
0
-5.09221e-16
4.18095e-16
0
6.20965e-16
-6.28061e-16
-7.71043e-16
5.76387e-16
-2.23853e-16
5.0795e-16
5.70214e-16
-8.47114e-16
0
3.35885e-16
-3.60751e-16
3.86526e-16
0
-4.40976e-16
4.69745e-16
1.02309e-15
-1.03719e-15
1.71376e-15
-1.78952e-15
1.23615e-15
1.36227e-15
-6.77357e-16
-7.44351e-16
0
8.27879e-16
-8.72334e-16
1.8705e-15
-1.90091e-15
-1.01773e-15
1.0706e-15
1.12589e-15
1.2033e-15
1.97579e-17
2.63671e-15
2.12262e-17
-1.46695e-15
-1.56409e-15
3.16607e-15
-1.67608e-15
3.54952e-15
6.66539e-18
-1.01801e-17
-1.72555e-17
2.98723e-16
5.84051e-17
5.96767e-17
1.56685e-16
-3.61908e-16
0
-2.36936e-16
3.14004e-16
9.20872e-17
6.28602e-16
-8.95681e-16
5.93677e-16
-8.17941e-16
8.4708e-16
6.43622e-16
-1.15555e-15
1.10312e-15
-1.13847e-15
-8.48489e-16
1.3007e-15
-4.69738e-16
-4.99603e-16
8.20416e-16
-1.66376e-15
6.22248e-16
-1.23611e-15
1.36222e-15
-2.08748e-15
7.4434e-16
0
-8.27867e-16
-9.04307e-16
8.8635e-16
0
1.54418e-15
-2.12332e-15
-1.12588e-15
-1.20327e-15
-1.97739e-17
-1.30784e-15
2.17521e-17
-3.61138e-15
4.55377e-15
-5.58273e-15
-5.00888e-17
-9.06496e-16
0
8.8787e-17
-1.1031e-16
-2.45476e-17
-3.20771e-17
-3.88691e-16
3.5266e-16
-5.92851e-16
4.21251e-16
-7.35208e-17
-8.2658e-17
-1.84184e-16
4.25034e-16
-3.18118e-16
8.19519e-21
5.51701e-16
-5.5847e-16
6.43733e-16
3.76315e-16
-5.20657e-16
0
0
2.20507e-16
9.62797e-16
-9.75896e-16
5.30654e-16
0
0
3.15601e-16
1.02864e-15
-1.38254e-15
0
3.92646e-16
0
-4.36188e-16
0
9.84263e-16
1.72277e-17
0
-1.14482e-15
5.72827e-16
1.26466e-15
4.14588e-17
-6.66032e-16
-2.2614e-17
1.49494e-15
-9.44583e-21
8.38053e-16
8.80774e-16
-3.33502e-18
1.01894e-17
-6.70687e-22
0
-1.42995e-16
1.84383e-16
0
5.61404e-17
-2.88185e-21
-7.35297e-17
8.26564e-17
-3.47407e-21
0
-2.23892e-16
3.85595e-16
-5.14138e-16
-5.96865e-16
4.48316e-16
-1.67958e-16
-1.8039e-16
0
-2.06645e-16
-4.4101e-16
-9.62738e-16
7.26013e-16
-2.65327e-16
0
1.21864e-15
-1.55177e-15
-1.36229e-15
2.82099e-15
-1.46015e-15
4.0766e-16
-1.22666e-15
4.3618e-16
0
0
-1.01776e-15
1.08885e-15
-1.10746e-15
1.79519e-15
-2.4892e-15
1.28739e-15
7.08983e-16
-3.61144e-15
7.3599e-16
-1.61929e-15
8.13311e-16
2.66869e-15
-5.04203e-17
1.08898e-16
4.52618e-17
-8.40389e-17
1.75128e-16
-1.44596e-16
0
0
6.46955e-17
-2.37046e-16
3.14126e-16
9.20984e-17
-1.0186e-16
5.77801e-16
-4.71431e-16
0
0
7.99727e-16
-1.34412e-15
1.624e-15
-7.521e-16
2.06648e-16
2.2051e-16
0
1.02319e-15
-1.03731e-15
-2.8145e-16
0
0
3.33717e-16
0
0
-8.00351e-16
3.83269e-16
8.56735e-16
0
0
5.08887e-16
0
0
1.20337e-15
-1.22466e-15
1.32891e-15
-1.3533e-15
0
7.58895e-16
-3.01822e-21
0
-8.80771e-16
2.68536e-17
-2.71319e-17
0
0
0
-1.74396e-16
1.76302e-16
2.40263e-16
3.18769e-17
-2.77929e-16
0
2.93473e-16
-7.13236e-16
3.18091e-16
5.08004e-16
-6.47358e-16
0
-1.55966e-16
0
-3.60795e-16
0
-2.06648e-16
0
-2.34894e-16
1.27296e-15
-1.30258e-15
-2.94037e-16
8.94788e-16
2.6434e-17
-6.53944e-16
-7.19271e-16
7.30087e-16
0
0
0
0
0
0
0
0
0
-1.26461e-15
-6.95403e-16
2.74947e-15
-2.88927e-15
7.35998e-16
7.97459e-16
8.5071e-16
-8.67896e-16
-2.68736e-17
2.71521e-17
0
1.12628e-16
-1.13833e-16
0
2.06839e-16
-2.09125e-16
0
-3.10572e-16
6.61593e-16
-2.59389e-16
0
-3.53896e-16
4.71426e-16
1.33198e-16
0
1.55968e-16
-6.92257e-16
8.81474e-16
7.94609e-16
-1.44698e-15
8.5987e-16
-2.46513e-16
4.8796e-16
2.65336e-16
0
-3.11171e-16
6.18132e-16
0
7.19304e-16
-7.30121e-16
0
0
0
0
0
1.03543e-15
-1.05283e-15
-1.14482e-15
1.16473e-15
-1.26466e-15
1.9414e-15
0
0
-1.1737e-17
7.85593e-16
0
0
0
1.0189e-17
0
0
3.20773e-17
0
0
1.84121e-16
-2.42948e-16
0
-3.47431e-16
3.51447e-16
1.01855e-16
0
0
-1.33195e-16
0
0
5.14065e-16
-3.50513e-16
5.90561e-16
2.18166e-17
2.23985e-17
-1.17465e-15
9.99497e-16
-7.83952e-16
2.81442e-16
0
0
-3.33712e-16
7.1927e-16
2.88736e-17
-7.70547e-16
8.4341e-16
-1.74505e-15
-3.26888e-17
9.50469e-16
-1.03538e-15
1.05279e-15
0
0
0
-6.64426e-16
6.76617e-16
7.33468e-16
-7.47439e-16
0
-8.50707e-16
8.67893e-16
1.66744e-18
-5.09444e-18
8.62931e-18
-1.00339e-16
9.77806e-17
1.99221e-17
-2.39313e-17
2.80718e-17
0
0
-4.13296e-17
3.85596e-16
-9.67925e-16
1.97152e-16
2.96897e-16
-7.60584e-17
2.79236e-16
0
-8.3982e-17
0
-1.93283e-16
0
1.10254e-16
7.16289e-16
2.36345e-17
4.22289e-16
-1.54818e-15
5.8366e-16
1.57799e-16
-3.47458e-16
6.91263e-16
-1.86097e-16
1.96321e-16
8.43428e-16
-1.74509e-15
9.02592e-16
2.41794e-16
2.5444e-16
2.67657e-16
0
2.95947e-16
6.32317e-16
-6.4371e-16
0
1.09457e-15
-7.47452e-16
0
4.19017e-16
0
-3.33463e-18
-1.01886e-17
-6.67588e-22
-2.45506e-17
-3.20759e-17
1.5447e-16
-2.79695e-16
1.04542e-16
-1.05063e-16
-5.30632e-17
-1.66737e-17
3.22455e-16
-1.95036e-16
1.76925e-16
-4.89684e-16
1.90479e-16
-7.21878e-17
-7.79793e-17
-1.67958e-16
-9.01948e-17
9.66384e-17
5.27602e-16
-4.29903e-16
1.17443e-16
1.24909e-16
-6.7557e-16
8.31936e-16
7.58416e-16
-6.18095e-16
1.66853e-16
1.76278e-16
3.72188e-16
8.00299e-16
-1.02744e-15
6.4643e-16
0
-2.10065e-21
5.17685e-16
-1.07081e-15
8.35205e-16
-2.17095e-21
3.11091e-16
3.26967e-16
3.43615e-16
-3.61088e-16
3.79436e-16
-4.10913e-16
-2.50379e-17
8.6789e-16
-1.17639e-17
-8.61601e-18
1.89374e-17
1.22749e-17
8.75433e-17
-7.22788e-17
2.393e-17
2.80697e-17
-1.37412e-16
1.75727e-16
2.56369e-16
1.70634e-17
-9.31892e-17
2.88871e-16
-2.96881e-16
6.65944e-17
4.42817e-16
-5.46021e-16
4.09878e-16
9.01949e-17
-8.57447e-22
-8.74603e-22
-1.10251e-16
-5.98821e-16
3.63018e-16
1.32662e-16
2.87738e-16
-1.36246e-16
-6.31314e-16
1.60117e-16
-9.90708e-22
-1.00174e-21
-5.9647e-16
4.06355e-16
-6.62265e-16
-1.63444e-17
2.33442e-16
-7.72125e-16
5.26389e-16
-2.81476e-16
-5.91884e-16
-9.88198e-22
-3.26967e-16
1.08815e-17
-3.38779e-16
-7.35706e-16
-3.74649e-16
-1.6637e-15
-4.40374e-16
-1.66706e-18
0
-8.6279e-18
-1.2274e-17
-1.60364e-17
0
-2.39284e-17
-2.8068e-17
-3.23449e-17
-3.67609e-17
-2.56359e-16
2.2176e-16
-3.14343e-16
2.1501e-16
0
-1.33186e-16
1.5406e-16
-6.2398e-16
5.88003e-16
-4.4069e-16
-9.66372e-17
-4.18772e-16
1.04699e-16
-2.40683e-16
1.19052e-16
-2.6532e-16
-5.69163e-16
-1.61931e-16
-6.54561e-18
-1.66849e-16
-1.76277e-16
-3.7218e-16
-5.96459e-16
6.21071e-16
-2.0225e-16
-9.18896e-16
4.75224e-16
-2.54431e-16
-5.35299e-16
5.72379e-16
-5.82331e-16
1.01177e-17
-6.43686e-16
-3.49049e-16
7.16659e-16
-5.86364e-18
3.98876e-16
-4.12831e-16
8.80742e-16
8.33487e-19
0
4.31393e-18
1.2274e-17
7.95161e-17
-7.22708e-17
1.19643e-17
8.81285e-17
-7.69032e-17
5.5141e-17
4.13257e-17
-2.30218e-17
-5.53222e-17
7.95184e-17
0
-1.04614e-16
2.4788e-16
0
-1.31054e-16
3.47369e-17
3.38312e-16
-1.49567e-16
2.81266e-16
-5.28576e-16
3.06407e-16
6.63297e-17
1.40714e-16
7.45436e-17
1.57792e-16
4.23989e-16
-4.33746e-16
9.30447e-17
4.98298e-16
-4.06344e-16
2.18083e-16
-2.33808e-16
3.62767e-16
-1.22901e-16
2.67647e-16
-1.40735e-16
-4.88299e-18
4.61687e-16
0
5.20853e-16
-1.75033e-16
0
-6.09619e-18
8.31837e-16
-6.60554e-16
8.33566e-19
0
2.15716e-18
0
4.00929e-18
4.35954e-17
-3.21079e-17
7.01658e-18
9.2957e-17
-8.78564e-17
-1.03309e-17
-7.33637e-17
8.47826e-17
-8.84577e-17
1.17836e-16
1.66482e-17
-3.60921e-17
-1.8041e-16
2.04928e-16
2.307e-16
-1.39682e-16
2.58293e-17
1.68194e-16
-8.52283e-17
6.24521e-17
3.31648e-17
-1.43864e-16
2.57718e-16
0
-1.28569e-16
3.70628e-17
4.18769e-16
-9.44732e-17
5.17416e-17
0
-2.33807e-16
3.58501e-16
-1.9523e-16
-9.01723e-18
3.47226e-16
-3.00819e-16
7.00058e-16
-2.401e-16
1.71804e-16
2.82321e-18
-2.81712e-16
-2.02407e-16
-1.11011e-16
5.47247e-16
2.08363e-19
6.81759e-18
5.65568e-18
-8.96371e-18
4.00876e-18
-2.4285e-17
-8.21058e-19
1.91144e-17
-4.24327e-17
-4.07481e-18
5.475e-17
4.24346e-17
-8.91426e-17
5.37479e-17
0
-5.23043e-17
6.97977e-17
9.99482e-17
-8.14669e-17
4.63993e-17
5.23122e-17
-8.83481e-18
-3.99532e-17
1.46795e-17
-1.12268e-16
9.49497e-17
-2.07105e-17
-4.04816e-17
-3.30417e-18
-2.59733e-17
3.0677e-16
5.01301e-17
-1.96344e-16
4.98419e-17
1.11038e-16
-8.41056e-17
0
6.36062e-17
0
-7.27238e-17
-4.82776e-18
2.30838e-16
-1.64788e-16
8.45732e-17
-9.16798e-17
9.19603e-17
1.48031e-16
1.58711e-16
-5.17874e-17
-2.08364e-19
0
-1.07839e-18
-1.53412e-18
0
4.9795e-18
3.68948e-25
3.50825e-18
0
0
-5.16575e-18
3.34964e-22
0
6.99582e-18
-7.64885e-18
4.90301e-22
-9.02275e-18
9.74605e-18
-1.04959e-17
0
-1.20782e-17
-1.29149e-17
-2.7561e-17
2.9358e-17
9.31487e-22
0
1.75888e-17
1.16215e-21
1.97223e-17
-2.08556e-17
-2.20337e-17
0
7.63199e-22
-7.75032e-22
0
-2.87102e-17
9.064e-22
0
-3.34553e-17
0
0
0
4.08696e-17
-1.33151e-21
1.35639e-21
0
-4.98392e-17
5.23755e-17
-1.10092e-16
0
8.09084e-18
-5.81058e-18
-1.71395e-17
1.42218e-17
-2.4285e-17
1.90427e-17
1.95028e-17
-5.6625e-17
5.11486e-18
3.92538e-17
5.7552e-18
5.31193e-17
-1.18962e-16
6.65634e-17
-1.66474e-17
-6.55801e-17
8.52763e-17
5.37549e-17
-4.38095e-17
1.11389e-16
-1.5364e-16
1.09807e-17
-7.77224e-17
1.703e-16
-3.16587e-17
-1.43859e-16
2.22061e-16
-2.16988e-16
8.1737e-17
1.11936e-16
-1.39597e-16
1.96344e-16
1.09256e-16
-3.79717e-16
-4.08604e-18
2.41823e-16
-2.54471e-16
1.65046e-16
0
-7.64236e-17
7.40341e-17
3.9589e-17
1.74521e-16
-2.69462e-16
-2.89581e-18
1.9787e-16
1.06336e-16
-5.50892e-17
6.71462e-18
-8.05748e-18
0
3.12152e-17
-2.8448e-17
0
0
7.01658e-18
6.06146e-17
-7.86661e-17
0
0
0
1.16442e-16
-1.17837e-16
-1.21262e-16
1.39602e-16
-1.94935e-17
1.73041e-16
-1.75245e-16
0
1.06066e-16
-1.07471e-16
0
1.27885e-16
-1.62813e-16
-1.43864e-16
1.45904e-16
-1.21679e-16
-6.8028e-18
1.72804e-16
-4.65213e-17
-2.0007e-16
4.14016e-16
-1.59645e-16
2.33807e-16
-2.37609e-16
-2.58837e-16
2.63188e-16
2.86186e-16
-3.65147e-16
0
0
0
0
-2.93258e-18
-1.05698e-16
6.28592e-16
-1.06878e-16
1.34283e-17
-4.08433e-17
2.75614e-17
1.2274e-17
1.60364e-17
8.71909e-17
-8.81438e-17
-6.00607e-17
6.07317e-17
7.76265e-17
-3.7188e-17
1.4243e-16
5.96551e-17
-1.07503e-16
0
0
0
1.60918e-16
1.01002e-17
-1.75246e-16
0
1.03317e-16
1.15895e-16
-3.46617e-16
-1.24905e-16
0
0
0
1.57792e-16
-1.66848e-16
0
5.65555e-16
-3.8526e-16
0
0
-4.12891e-18
-4.17508e-18
0
2.67647e-16
0
0
3.16144e-16
1.03642e-17
1.07481e-17
-3.55573e-16
1.89715e-16
0
-2.03161e-16
2.33215e-16
0
-5.0941e-18
0
-1.2274e-17
-1.60364e-17
8.71935e-17
-8.81464e-17
0
0
-1.55257e-16
1.15705e-16
1.46732e-16
-2.45955e-16
2.3289e-16
-4.28805e-17
-5.32896e-16
2.79211e-16
0
0
0
0
-2.06636e-16
1.10248e-16
3.58123e-16
-1.19052e-16
0
-2.87732e-16
1.42725e-16
-1.57793e-16
1.66849e-16
3.59626e-16
-5.51123e-16
-4.00145e-16
4.06349e-16
-2.18086e-16
-2.2968e-16
7.3389e-16
-5.00238e-16
-5.35299e-16
5.72379e-16
-5.82333e-16
3.21205e-16
-9.75894e-16
3.38303e-16
0
-7.64729e-16
3.98874e-16
-4.12833e-16
7.25196e-22
1.17639e-17
-1.35701e-17
-8.62856e-18
-1.22749e-17
5.54683e-17
-9.21998e-17
7.94715e-17
-1.32614e-16
-3.23455e-17
-1.92028e-16
1.57039e-16
-4.60467e-17
-5.09257e-17
-5.59719e-17
-6.86952e-22
-3.42432e-16
2.07033e-16
-3.99831e-16
-1.04179e-16
2.60314e-16
3.97275e-16
-1.95829e-16
0
1.17443e-16
-1.24909e-16
1.32663e-16
1.47021e-16
-2.98305e-16
1.51252e-16
1.66853e-16
1.83354e-16
-1.78948e-16
2.03835e-16
-1.99382e-16
-1.03243e-21
2.29684e-16
-7.33902e-16
7.54682e-16
-1.04795e-21
8.53864e-16
-8.78285e-16
1.25449e-15
-6.43696e-16
3.43615e-16
0
3.79436e-16
-4.10918e-16
1.6637e-15
-8.8735e-16
1.6672e-18
1.01886e-17
-7.44917e-17
2.08867e-16
-2.24724e-16
-2.98432e-17
2.00228e-16
-9.20587e-17
1.21469e-16
3.67629e-17
0
-1.46736e-16
4.58464e-16
7.38521e-17
-1.74493e-16
-1.52468e-21
-1.54062e-16
3.80126e-16
8.39784e-17
-1.63871e-21
-3.97272e-16
8.26749e-16
-3.19649e-16
-2.34887e-16
2.4982e-16
1.80103e-21
5.75472e-16
-1.23401e-16
-3.02499e-16
1.9123e-21
1.76278e-16
-1.86093e-16
1.96317e-16
-6.28675e-16
1.0906e-15
-4.5128e-16
4.83581e-16
-2.54435e-16
5.35307e-16
-5.72383e-16
8.78282e-16
-9.43391e-16
9.70662e-16
-3.43615e-16
0
-3.79436e-16
3.98724e-16
1.36243e-21
8.93951e-16
0
-5.09457e-18
-6.58824e-17
-2.85942e-17
1.29858e-16
1.99221e-17
4.78631e-17
0
3.2347e-17
7.35299e-17
-3.47453e-16
4.43567e-16
4.25035e-16
-8.52034e-17
-1.13312e-16
6.65972e-17
7.21912e-17
0
1.67963e-16
9.01973e-17
-2.04009e-16
-1.25139e-16
3.19668e-16
3.52338e-16
-6.36492e-16
-1.56957e-16
9.72685e-16
0
1.57801e-16
5.14316e-16
-6.91263e-16
3.72195e-16
0
0
0
-2.29688e-16
-1.22604e-15
1.00052e-15
2.67659e-16
-2.81481e-16
1.19356e-15
2.00008e-17
-3.16736e-16
6.98125e-16
-7.11174e-16
1.17337e-17
-1.18431e-15
-2.10777e-15
-1.28489e-17
-3.33516e-18
0
-1.72585e-17
0
-3.20773e-17
-3.98461e-17
-2.54664e-16
1.52942e-16
0
-7.35294e-17
3.47431e-16
-4.43545e-16
0
-5.77751e-16
2.26601e-16
0
-1.4438e-16
0
-1.67962e-16
1.90834e-16
-5.69303e-16
2.17641e-16
-4.29908e-16
2.4649e-16
-7.37757e-16
0
-2.81441e-16
0
-6.31199e-16
6.81155e-16
-6.91246e-16
-1.13115e-15
7.70547e-16
-4.13959e-16
0
-9.35262e-16
-3.37607e-17
1.0005e-15
-1.07063e-15
0
-5.91892e-16
0
-6.53942e-16
0
7.33468e-16
2.31611e-17
-7.85567e-16
-2.53085e-21
-1.32039e-17
3.33521e-18
0
-6.58927e-17
5.94791e-17
-1.75122e-16
1.84436e-16
-4.78651e-17
5.61452e-17
0
2.37039e-16
-3.96784e-16
-3.85616e-16
-1.36788e-16
4.30086e-16
2.44786e-16
5.51724e-16
-1.15543e-15
6.04353e-16
0
1.804e-16
9.87896e-16
4.36343e-17
-8.5987e-16
2.34897e-16
2.49829e-16
0
2.81448e-16
0
3.15606e-16
0
0
-3.722e-16
8.00345e-16
4.44658e-16
-1.29292e-15
0
0
-5.08888e-16
5.35323e-16
5.6297e-16
5.91903e-16
1.88686e-15
-1.28744e-15
0
1.45569e-15
-7.59202e-16
1.58306e-15
-1.26884e-17
-2.6049e-17
-3.33532e-18
-5.45506e-17
2.06019e-17
-8.80403e-17
2.86983e-18
1.44552e-16
4.78646e-17
-2.96408e-16
2.42947e-16
3.84062e-16
-1.48756e-16
2.93473e-16
-1.86367e-16
-1.1195e-16
-1.22392e-16
0
5.96889e-16
-7.6027e-16
-1.67964e-16
0
4.07988e-16
-5.98295e-16
6.84103e-16
-1.15165e-15
-1.27296e-15
1.30258e-15
-5.62889e-16
-6.09334e-16
6.18101e-16
6.81156e-16
-3.24543e-16
-3.57891e-16
-3.92646e-16
0
-4.52174e-16
9.02575e-16
0
5.08883e-16
0
-1.12593e-15
6.11417e-16
-1.84681e-15
0
-6.87244e-16
7.44502e-22
-7.58886e-16
1.21841e-17
1.23613e-17
0
6.67043e-18
1.01897e-17
-6.58983e-17
1.08592e-16
0
0
0
5.6146e-17
0
0
-2.76948e-21
1.842e-16
-1.0186e-16
1.11952e-16
0
5.51729e-16
1.82825e-16
1.95373e-16
2.0837e-16
-8.81478e-16
1.93288e-16
2.06648e-16
3.7642e-21
2.34895e-16
3.88126e-21
-2.65338e-16
2.8145e-16
1.21874e-15
-9.2067e-16
-3.33717e-16
1.42445e-15
-3.57928e-16
-4.07699e-16
1.22672e-15
8.88404e-16
-9.02618e-16
4.83595e-16
0
5.35323e-16
1.14484e-15
-5.7284e-16
0
1.32891e-15
-6.66039e-16
-2.1892e-15
4.55401e-15
-1.5712e-15
-8.38051e-16
0
-6.67008e-18
-1.01896e-17
-1.72587e-17
6.34784e-17
-2.5678e-16
3.18921e-16
-1.73634e-17
-2.65211e-16
0
0
-8.26598e-17
2.01361e-16
-3.90061e-16
-1.11944e-16
-5.07981e-16
1.06579e-15
-1.44405e-15
-1.95363e-16
6.51781e-16
-5.62043e-16
5.5874e-16
-4.13287e-16
2.20508e-16
-2.34892e-16
1.27293e-15
-1.03722e-15
0
-1.51683e-15
1.89403e-15
-9.74151e-16
-3.52565e-16
-1.13114e-15
3.77897e-16
-4.13958e-16
0
-4.59372e-16
-9.67174e-16
0
-1.07063e-15
5.62963e-16
-2.38709e-15
-4.00025e-17
6.33448e-16
-6.87239e-16
0
2.34391e-17
-2.36859e-15
-8.38037e-16
0
-5.04193e-17
-5.48528e-17
-3.87389e-17
1.92617e-16
-2.86073e-16
6.38013e-16
1.08856e-16
-3.62084e-16
-2.74848e-16
2.77953e-16
-3.47453e-16
4.43565e-16
0
1.11946e-16
0
-5.51702e-16
1.05936e-16
7.60292e-16
-6.92234e-16
7.01052e-16
9.87868e-16
-5.98328e-16
0
-9.62798e-16
1.99906e-15
-1.03728e-15
0
2.98189e-16
3.15601e-16
-1.36236e-15
1.38254e-15
0
1.99332e-15
-1.62549e-15
0
4.59381e-16
-5.0067e-16
1.00053e-15
5.35321e-16
1.14482e-15
-5.72827e-16
0
6.53954e-16
-7.09027e-16
-4.46177e-17
2.25384e-15
1.61936e-15
-8.13364e-16
8.80774e-16
0
-2.03674e-17
0
-4.90827e-17
0
0
-9.5695e-17
-4.8039e-16
4.85757e-16
0
-5.12635e-16
7.36864e-16
-3.90003e-16
2.41866e-16
-9.7922e-16
1.06567e-15
-8.47081e-16
0
0
-7.42376e-16
7.51955e-16
0
0
0
-4.99603e-16
0
5.62839e-16
5.96329e-16
-6.31153e-16
-6.67379e-16
-7.05082e-16
-7.73491e-16
1.541e-15
8.27867e-16
8.72322e-16
0
-1.95132e-15
1.00045e-15
1.07058e-15
0
-1.18374e-15
1.24434e-15
0
1.37444e-15
0
-1.51773e-15
7.97457e-16
1.67606e-15
-8.80767e-16
-6.66602e-18
2.03676e-17
1.66218e-16
-1.67974e-16
0
0
4.27438e-21
-1.12249e-16
5.49557e-16
6.51986e-17
-9.9226e-16
7.02792e-16
-2.03669e-16
1.15536e-15
-9.42655e-16
-2.66346e-16
2.88723e-16
0
-3.3588e-16
-3.60746e-16
0
-4.13247e-16
4.63592e-16
-9.16705e-16
4.9961e-16
-5.30619e-16
-5.62847e-16
2.59523e-17
-6.04994e-16
6.67389e-16
6.56935e-21
-6.6751e-21
1.60058e-15
-3.28115e-15
-7.0389e-21
-9.18712e-16
9.67144e-16
1.01772e-15
-7.64313e-21
-1.12588e-15
2.38706e-15
3.99963e-17
-2.59525e-15
-8.2255e-21
-1.46695e-15
1.4949e-15
1.59491e-15
2.53882e-17
-3.49739e-15
6.66601e-18
0
1.6615e-16
1.06247e-16
-5.13365e-16
2.88973e-16
1.91372e-16
1.12249e-16
-1.29339e-16
-4.73874e-16
4.62699e-16
-1.84141e-16
2.03669e-16
0
5.07906e-16
-5.14051e-16
2.88705e-16
0
3.3588e-16
-7.42352e-16
1.13845e-15
4.13247e-16
1.34549e-15
5.15736e-16
-9.75763e-16
1.61635e-15
4.99526e-17
2.54594e-17
6.57831e-16
-1.30779e-15
2.14353e-15
-1.46009e-15
8.15297e-16
3.03898e-17
-1.77664e-15
2.72376e-15
-9.67121e-16
-1.5676e-20
-1.60407e-20
1.12588e-15
-1.18373e-15
2.02221e-17
2.65715e-15
-2.72765e-15
0
1.51775e-15
-3.18979e-15
0
1.57587e-20
0
-2.03729e-17
1.66128e-16
1.06261e-16
-5.13326e-16
2.09282e-16
-9.56803e-17
-5.92614e-16
1.16452e-15
-7.02681e-16
0
1.84141e-16
0
9.31407e-16
7.32469e-17
-7.61787e-16
-2.88706e-16
-1.28722e-15
1.30341e-15
-3.70275e-20
2.14023e-17
4.36349e-17
-1.30071e-15
4.92937e-16
-1.47539e-15
0
5.87996e-16
-1.76351e-15
6.31142e-16
0
0
-1.48871e-15
7.8523e-16
-2.51458e-15
8.40976e-16
-2.78918e-15
8.99597e-16
-2.10523e-15
1.03491e-15
1.12592e-15
1.18374e-15
-1.24438e-15
-1.30784e-15
-1.37448e-15
2.91128e-15
-1.51826e-15
3.166e-15
3.37753e-15
5.21439e-17
0
2.0373e-17
-3.45191e-17
-4.90923e-17
-2.86089e-16
1.99893e-17
3.52679e-16
1.12267e-16
0
-7.68197e-16
-6.67022e-17
7.0297e-16
8.50104e-16
-1.79185e-15
1.71416e-15
-1.02841e-15
0
0
-6.92258e-16
3.19333e-16
1.93326e-15
-8.05001e-16
-2.96079e-20
0
4.99634e-16
-1.0859e-15
2.81499e-15
-1.16736e-15
0
-6.67448e-16
1.43863e-15
-2.2339e-15
3.1419e-15
-1.62553e-15
1.77682e-15
-8.86502e-16
0
1.01776e-15
-1.07067e-15
-3.41561e-15
-1.26108e-15
2.44932e-15
-1.30793e-15
1.37449e-15
-1.44438e-15
-1.51779e-15
-1.61938e-15
1.67685e-15
2.56766e-17
0
2.03847e-17
-8.34728e-21
0
6.41685e-17
0
9.57425e-17
1.12303e-16
0
7.6811e-16
-4.62807e-16
-7.71138e-16
7.80157e-16
9.31601e-16
-1.46918e-15
1.29474e-15
0
-9.75466e-16
1.30361e-15
-1.12412e-15
1.89069e-15
0
-2.25528e-17
1.87954e-15
-1.99902e-15
1.56795e-15
0
5.96412e-16
0
-2.79097e-20
-7.33393e-16
1.46019e-15
-8.15315e-16
1.62546e-15
-9.04332e-16
8.86375e-16
1.96849e-15
1.08758e-15
1.14279e-15
-1.089e-15
1.18381e-15
2.52923e-15
4.10191e-17
0
0
0
0
1.70145e-15
5.21352e-17
0
-2.03852e-17
3.45276e-17
2.74481e-16
-2.9194e-16
7.97132e-17
7.85665e-21
-1.12306e-16
-5.49871e-16
5.56085e-16
-1.65344e-16
-1.84231e-16
-8.50278e-16
2.01614e-15
-2.20411e-15
7.62174e-16
-1.19406e-15
8.96935e-16
3.35973e-16
-3.60827e-16
-7.73221e-16
0
-4.41057e-16
0
1.02331e-15
-1.56813e-15
-5.88202e-16
5.71053e-16
-1.28927e-15
6.13054e-16
2.82147e-15
-2.97852e-15
7.55966e-16
0
-8.72434e-16
1.83766e-15
-1.96871e-15
9.83415e-16
2.17797e-15
-2.21518e-15
0
1.24447e-15
-1.30797e-15
0
-2.91156e-15
1.49503e-15
2.44137e-17
1.72622e-15
-5.28552e-15
6.6735e-18
0
1.66251e-16
-4.42339e-16
2.27617e-16
-7.97109e-17
-9.57498e-17
0
1.29421e-16
1.47092e-16
6.9493e-16
2.52482e-16
-1.63034e-15
-2.95455e-16
-7.32485e-17
1.29484e-15
0
0
-3.35963e-16
0
7.73218e-16
-1.28393e-15
3.52909e-15
-2.79645e-15
1.49942e-15
4.85832e-17
-5.1298e-16
-5.70925e-16
-1.28914e-15
-5.44241e-17
-2.78017e-17
-1.518e-15
-5.95254e-17
2.45349e-15
0
-9.18811e-16
-9.67243e-16
0
0
2.28966e-15
-2.32947e-15
2.52932e-15
1.39087e-15
-5.49911e-15
-8.92292e-17
1.4486e-15
4.78546e-15
-3.3275e-15
-2.63961e-17
-6.67373e-18
0
0
0
0
0
0
-4.80776e-16
3.56723e-16
-1.47097e-16
-6.9514e-16
-6.82585e-17
7.80458e-16
0
0
8.37241e-16
-2.31134e-15
1.20895e-15
1.38477e-15
-1.40241e-15
-1.97611e-15
1.19691e-15
0
0
-5.23623e-16
1.03746e-15
0
-5.9645e-16
1.2893e-15
-2.67067e-15
2.08795e-15
1.51817e-15
-1.54135e-15
-8.28005e-16
0
0
9.67276e-16
2.07106e-15