/*--------------------------------*- C++ -*----------------------------------*\
  =========                 |
  \\      /  F ield         | OpenFOAM: The Open Source CFD Toolbox
   \\    /   O peration     | Website:  https://openfoam.org
    \\  /    A nd           | Version:  6
     \\/     M anipulation  |
\*---------------------------------------------------------------------------*/
FoamFile
{
    version     2.0;
    format      ascii;
    class       volScalarField;
    location    "120";
    object      Cy;
}
// * * * * * * * * * * * * * * * * * * * * * * * * * * * * * * * * * * * * * //

dimensions      [0 1 0 0 0 0 0];

internalField   nonuniform List<scalar> 
1596
(
0.067297
0.155429
0.243332
0.330859
0.417865
0.50421
0.589764
0.674415
0.75795
0.840245
0.920973
0.999783
1.07646
1.15072
1.22208
1.2903
1.35504
1.41581
1.47258
0.109255
0.195119
0.280753
0.366012
0.450751
0.534828
0.618114
0.700498
0.781765
0.861793
0.940254
1.0168
1.09121
1.1632
1.23229
1.29825
1.36072
1.41923
1.47372
0.143692
0.227694
0.311467
0.394865
0.477743
0.55996
0.641385
0.721908
0.801315
0.879482
0.956083
1.03077
1.10332
1.17344
1.24068
1.30478
1.36539
1.42204
1.47467
0.169
0.251635
0.33404
0.416071
0.497581
0.578431
0.658489
0.737645
0.815686
0.892486
0.967721
1.04104
1.11223
1.18098
1.24685
1.30958
1.36883
1.42411
1.47538
0.183934
0.265762
0.347361
0.428586
0.50929
0.589334
0.668586
0.746937
0.824172
0.900166
0.974596
1.04711
1.11749
1.18544
1.25051
1.31243
1.37087
1.42535
1.47581
0.187949
0.269561
0.350944
0.431953
0.512442
0.59227
0.671307
0.749442
0.826462
0.902241
0.976456
1.04875
1.11892
1.18666
1.25151
1.31322
1.37144
1.4257
1.47595
0.181347
0.263318
0.345058
0.426426
0.507273
0.58746
0.666855
0.745349
0.822728
0.898865
0.973439
1.04609
1.11662
1.18472
1.24993
1.31199
1.37057
1.4252
1.4758
0.165144
0.247992
0.330609
0.412854
0.494579
0.575644
0.655916
0.735288
0.813544
0.890559
0.966011
1.03954
1.11095
1.17992
1.24601
1.30895
1.36841
1.42391
1.47539
0.140379
0.224566
0.308524
0.39211
0.475174
0.55758
0.639193
0.719905
0.799502
0.877857
0.954649
1.02952
1.10227
1.17258
1.24001
1.30429
1.36509
1.42193
1.47475
0.109072
0.194953
0.280604
0.365883
0.450641
0.53474
0.618047
0.700452
0.781742
0.861791
0.940276
1.01684
1.09128
1.16329
1.23241
1.29838
1.36087
1.4194
1.47392
0.0731975
0.161019
0.24861
0.33583
0.422528
0.508567
0.593814
0.678159
0.761389
0.843378
0.923803
1.00231
1.07869
1.15263
1.22369
1.29161
1.35604
1.41651
1.47296
0.0329373
0.122936
0.212705
0.302102
0.390978
0.479195
0.566619
0.653142
0.738549
0.822715
0.905318
0.986001
1.06455
1.14068
1.21391
1.28401
1.35061
1.41326
1.47189
-0.010773
0.0815896
0.173722
0.265482
0.356721
0.447302
0.537089
0.625975
0.713746
0.800275
0.885241
0.968287
1.0492
1.12769
1.20329
1.27574
1.34472
1.40973
1.47072
-0.056468
0.038365
0.132968
0.227199
0.320908
0.413959
0.506217
0.597573
0.687814
0.776814
0.86425
0.949766
1.03315
1.11411
1.19218
1.26711
1.33855
1.40603
1.46949
-0.103723
-0.00633516
0.0908223
0.187608
0.283872
0.379478
0.47429
0.568201
0.660997
0.752551
0.842542
0.930613
1.01655
1.10007
1.18069
1.25817
1.33217
1.4022
1.46822
-0.152129
-0.0521247
0.0476495
0.147052
0.245933
0.344155
0.441584
0.538112
0.633524
0.727695
0.820302
0.91099
0.999549
1.08568
1.16892
1.24901
1.32563
1.39828
1.46691
-0.200848
-0.0982105
0.00419693
0.106232
0.207747
0.308602
0.408665
0.507826
0.605872
0.702676
0.797917
0.891238
0.98243
1.07119
1.15707
1.2398
1.31904
1.39433
1.46559
-0.249255
-0.144001
-0.0389775
0.0656743
0.169805
0.273277
0.375955
0.477733
0.578395
0.677816
0.775673
0.871611
0.96542
1.0568
1.14529
1.23064
1.3125
1.3904
1.46428
-0.297434
-0.189576
-0.0819478
0.0253081
0.132043
0.238119
0.343402
0.447783
0.55105
0.653075
0.753536
0.852079
0.948491
1.04247
1.13357
1.22152
1.30599
1.38649
1.46298
-0.344769
-0.234353
-0.124167
-0.0143528
0.0949401
0.203574
0.311415
0.418355
0.52418
0.628763
0.731783
0.832883
0.931854
1.0284
1.12205
1.21256
1.29958
1.38265
1.4617
-0.389877
-0.277024
-0.164401
-0.0521492
0.0595812
0.170652
0.280931
0.390309
0.498571
0.605592
0.711049
0.814588
0.915997
1.01498
1.11107
1.20402
1.29348
1.37898
1.46047
-0.431862
-0.31674
-0.201848
-0.0873282
0.0266706
0.14001
0.252558
0.364204
0.474735
0.584025
0.691751
0.797558
0.901236
1.00248
1.10084
1.19606
1.28779
1.37557
1.45932
-0.469662
-0.352498
-0.235564
-0.119002
-0.00296084
0.112421
0.227011
0.340699
0.453272
0.564604
0.674373
0.782223
0.887943
0.991235
1.09164
1.1889
1.28267
1.37249
1.45829
-0.501666
-0.382774
-0.264111
-0.14582
-0.0280504
0.0890603
0.205379
0.320796
0.435098
0.548159
0.659656
0.769235
0.876685
0.981706
1.08384
1.18283
1.27833
1.36988
1.4574
-0.526758
-0.408361
-0.290193
-0.172397
-0.0551221
0.0614936
0.177317
0.29224
0.406048
0.518616
0.62962
0.738707
0.845665
0.950196
1.05184
1.15034
1.24536
1.33642
1.42347
-0.541736
-0.426265
-0.311024
-0.196156
-0.0818079
0.0318807
0.144778
0.256774
0.367655
0.477297
0.585375
0.691536
0.795569
0.897175
0.995895
1.09147
1.18357
1.27172
1.35584
-0.543105
-0.431339
-0.319802
-0.208638
-0.0979948
0.0119895
0.121182
0.229474
0.336652
0.44259
0.546964
0.649422
0.749752
0.847657
0.942675
1.03455
1.12295
1.2074
1.28784
-0.530609
-0.423296
-0.316213
-0.209502
-0.103312
0.00221928
0.106959
0.210798
0.313523
0.415008
0.51493
0.612936
0.708814
0.802268
0.892836
0.980266
1.06422
1.14422
1.22021
-0.506709
-0.404466
-0.302452
-0.200811
-0.0996895
0.000772044
0.100443
0.199212
0.296868
0.393284
0.488137
0.581074
0.671885
0.76027
0.845772
0.928136
1.00703
1.08197
1.1529
-0.474353
-0.377636
-0.281148
-0.185034
-0.0894387
0.00549651
0.0996408
0.192884
0.285014
0.375904
0.465231
0.552643
0.637928
0.720789
0.800767
0.877609
0.950979
1.0204
1.08583
-0.436711
-0.345806
-0.255131
-0.164829
-0.0750467
0.0140759
0.102408
0.189839
0.276156
0.361234
0.444749
0.526349
0.605823
0.682874
0.757043
0.828078
0.895643
0.959268
1.0189
-0.396456
-0.311505
-0.226784
-0.142436
-0.0586074
0.0245612
0.106939
0.188417
0.26878
0.347905
0.425468
0.501115
0.574638
0.645738
0.713958
0.779045
0.840667
0.898354
0.952057
-0.354607
-0.275697
-0.197015
-0.118708
-0.0409196
0.0362091
0.112547
0.187985
0.262309
0.335395
0.406919
0.476529
0.544014
0.609078
0.671265
0.730321
0.785918
0.837589
0.88529
-0.312374
-0.239526
-0.166906
-0.0946592
-0.022932
0.0481357
0.118413
0.187791
0.256055
0.323081
0.388546
0.452098
0.513526
0.572535
0.62867
0.681677
0.731235
0.77688
0.818579
-0.270556
-0.202899
-0.135472
-0.0684192
-0.00188711
0.0639842
0.129064
0.193242
0.256305
0.318127
0.378386
0.436727
0.492941
0.546729
0.597632
0.645398
0.68969
0.730035
0.766382
-0.229669
-0.165368
-0.101298
-0.0376024
0.0255726
0.0880866
0.149809
0.210629
0.270333
0.328797
0.385695
0.440675
0.493526
0.543948
0.591482
0.635874
0.676783
0.713735
0.746672
-0.191587
-0.129541
-0.0677259
-0.00628492
0.0546355
0.114895
0.174363
0.232928
0.290378
0.346588
0.401232
0.453958
0.504554
0.552722
0.598002
0.64014
0.678795
0.713492
0.744174
-0.158582
-0.0984876
-0.0386232
0.0208671
0.0798368
0.138146
0.195663
0.252278
0.307778
0.362037
0.414731
0.465506
0.514153
0.560371
0.6037
0.643888
0.680592
0.713338
0.742068
-0.131527
-0.0730247
-0.0147517
0.0431473
0.100526
0.157244
0.21317
0.268194
0.322103
0.374771
0.425874
0.475059
0.522114
0.566741
0.608479
0.647076
0.682189
0.713343
0.740481
-0.110655
-0.0533734
0.00367862
0.0603569
0.116515
0.172012
0.226717
0.280521
0.333209
0.384657
0.434539
0.482503
0.528338
0.571745
0.612263
0.649639
0.68353
0.713463
0.739379
-0.0962962
-0.0398504
0.0163656
0.072208
0.12753
0.182191
0.236061
0.289029
0.340881
0.391493
0.44054
0.487668
0.532667
0.575238
0.61492
0.65146
0.684516
0.713613
0.738692
-0.0886717
-0.0326738
0.0230942
0.0784887
0.133363
0.187576
0.240998
0.293518
0.344922
0.395086
0.443685
0.490366
0.534918
0.577041
0.616275
0.652367
0.684974
0.713623
0.738254
-0.0886716
-0.0326738
0.0230941
0.0784885
0.133362
0.187576
0.240998
0.293517
0.344922
0.395086
0.443685
0.490365
0.534917
0.57704
0.616274
0.652366
0.684973
0.713622
0.738252
-0.0962958
-0.0398504
0.0163652
0.0722073
0.127529
0.18219
0.236059
0.289027
0.340879
0.39149
0.440537
0.487665
0.532664
0.575234
0.614916
0.651456
0.684511
0.713607
0.738686
-0.110654
-0.053373
0.00367843
0.0603562
0.116513
0.17201
0.226715
0.280518
0.333206
0.384653
0.434535
0.482498
0.528333
0.571739
0.612256
0.649631
0.683522
0.713455
0.73937
-0.131526
-0.073024
-0.0147518
0.0431465
0.100524
0.157241
0.213167
0.26819
0.322098
0.374766
0.425868
0.475052
0.522107
0.566733
0.608471
0.647067
0.682179
0.713332
0.74047
-0.15858
-0.0984872
-0.0386238
0.0208655
0.0798342
0.138142
0.195658
0.252273
0.307771
0.36203
0.414722
0.465497
0.514142
0.560359
0.603687
0.643874
0.680577
0.713323
0.742052
-0.191586
-0.129542
-0.0677274
-0.0062877
0.0546314
0.11489
0.174356
0.23292
0.290369
0.346577
0.40122
0.453945
0.50454
0.552707
0.597985
0.640122
0.678775
0.713471
0.744152
-0.229668
-0.165369
-0.1013
-0.037606
0.0255675
0.08808
0.149801
0.210619
0.270322
0.328784
0.385681
0.440659
0.493508
0.543929
0.591461
0.635853
0.67676
0.71371
0.746645
-0.27056
-0.202917
-0.135504
-0.0684658
-0.00194819
0.0639086
0.128974
0.193137
0.256185
0.317994
0.378237
0.436564
0.492763
0.546536
0.597425
0.645176
0.689453
0.729783
0.766113
-0.312385
-0.23956
-0.166965
-0.0947434
-0.0230409
0.0480021
0.118255
0.187608
0.255847
0.322849
0.388289
0.451816
0.51322
0.572204
0.628314
0.681297
0.73083
0.77645
0.818124
-0.354616
-0.275728
-0.19707
-0.118785
-0.0410192
0.0360868
0.112402
0.187817
0.262119
0.335182
0.406684
0.476271
0.543733
0.608775
0.670939
0.729972
0.785547
0.837195
0.884874
-0.396465
-0.311537
-0.226838
-0.142513
-0.0587071
0.0244389
0.106794
0.188249
0.26859
0.347692
0.425232
0.500857
0.574357
0.645434
0.713632
0.778696
0.840296
0.897961
0.951641
-0.43672
-0.345838
-0.255185
-0.164906
-0.0751465
0.0139534
0.102263
0.189671
0.275966
0.361021
0.444514
0.526091
0.605543
0.682571
0.756718
0.827729
0.895272
0.958874
1.01848
-0.474363
-0.377669
-0.281203
-0.185111
-0.089539
0.00537364
0.0994954
0.192716
0.284823
0.375691
0.464996
0.552384
0.637647
0.720486
0.800441
0.877261
0.950608
1.02001
1.08541
-0.50672
-0.404499
-0.302507
-0.200889
-0.09979
0.000648994
0.100297
0.199044
0.296677
0.393071
0.487901
0.580816
0.671604
0.759967
0.845446
0.927788
1.00665
1.08157
1.15249
-0.530619
-0.423329
-0.316268
-0.20958
-0.103412
0.0020961
0.106813
0.21063
0.313332
0.414795
0.514694
0.612677
0.708533
0.801964
0.89251
0.979917
1.06385
1.14383
1.2198
-0.543116
-0.431372
-0.319858
-0.208717
-0.0980958
0.0118659
0.121036
0.229306
0.336461
0.442376
0.546728
0.649163
0.749471
0.847353
0.942349
1.03421
1.12258
1.20701
1.28742
-0.541747
-0.426299
-0.311081
-0.196235
-0.0819093
0.0317568
0.144631
0.256605
0.367464
0.477083
0.585139
0.691277
0.795288
0.896871
0.995569
1.09113
1.1832
1.27132
1.35543
-0.526764
-0.408377
-0.290221
-0.172436
-0.0551723
0.0614322
0.177245
0.292156
0.405953
0.51851
0.629503
0.738579
0.845526
0.950046
1.05168
1.15017
1.24518
1.33623
1.42326
-0.501666
-0.382773
-0.264111
-0.14582
-0.0280502
0.0890606
0.205379
0.320796
0.435098
0.548159
0.659657
0.769236
0.876685
0.981706
1.08384
1.18283
1.27833
1.36988
1.4574
-0.469664
-0.3525
-0.235566
-0.119004
-0.00296237
0.11242
0.227009
0.340698
0.453271
0.564603
0.674372
0.782222
0.887942
0.991234
1.09164
1.1889
1.28267
1.37249
1.45829
-0.431864
-0.316742
-0.20185
-0.0873299
0.0266691
0.140009
0.252556
0.364202
0.474734
0.584024
0.69175
0.797557
0.901235
1.00248
1.10084
1.19606
1.28779
1.37557
1.45932
-0.389879
-0.277026
-0.164402
-0.0521509
0.0595796
0.170651
0.28093
0.390307
0.49857
0.605591
0.711048
0.814587
0.915996
1.01498
1.11107
1.20402
1.29348
1.37898
1.46047
-0.344771
-0.234355
-0.124169
-0.0143546
0.0949384
0.203572
0.311414
0.418354
0.524178
0.628762
0.731782
0.832882
0.931853
1.0284
1.12205
1.21256
1.29958
1.38265
1.4617
-0.297436
-0.189578
-0.0819497
0.0253064
0.132041
0.238117
0.3434
0.447782
0.551049
0.653074
0.753535
0.852078
0.94849
1.04247
1.13357
1.22152
1.30599
1.38649
1.46298
-0.249257
-0.144003
-0.0389794
0.0656726
0.169803
0.273275
0.375954
0.477732
0.578394
0.677815
0.775672
0.87161
0.965419
1.0568
1.14529
1.23064
1.3125
1.3904
1.46428
-0.20085
-0.0982125
0.00419508
0.106231
0.207745
0.308601
0.408663
0.507824
0.60587
0.702675
0.797916
0.891237
0.982429
1.07119
1.15707
1.2398
1.31904
1.39433
1.46559
-0.152131
-0.0521267
0.0476476
0.14705
0.245931
0.344153
0.441583
0.53811
0.633523
0.727694
0.820301
0.91099
0.999548
1.08568
1.16892
1.24901
1.32563
1.39828
1.46691
-0.103725
-0.00633711
0.0908205
0.187606
0.283871
0.379476
0.474289
0.5682
0.660996
0.75255
0.842541
0.930612
1.01655
1.10007
1.18069
1.25817
1.33216
1.4022
1.46822
-0.05647
0.0383631
0.132966
0.227197
0.320907
0.413957
0.506215
0.597572
0.687813
0.776813
0.864249
0.949766
1.03315
1.11411
1.19218
1.2671
1.33855
1.40603
1.46949
-0.0107749
0.0815878
0.17372
0.265481
0.35672
0.4473
0.537088
0.625974
0.713745
0.800274
0.88524
0.968286
1.0492
1.12769
1.20329
1.27574
1.34471
1.40973
1.47072
0.0329354
0.122935
0.212704
0.302101
0.390977
0.479193
0.566618
0.65314
0.738548
0.822714
0.905317
0.986
1.06455
1.14068
1.21391
1.28401
1.35061
1.41326
1.47189
0.0731954
0.161017
0.248608
0.335828
0.422526
0.508566
0.593812
0.678158
0.761388
0.843377
0.923803
1.00231
1.07869
1.15263
1.22369
1.29161
1.35604
1.41651
1.47296
0.10907
0.194951
0.280603
0.365882
0.45064
0.534739
0.618046
0.700451
0.781741
0.86179
0.940275
1.01684
1.09128
1.16329
1.23241
1.29838
1.36087
1.4194
1.47392
0.140377
0.224565
0.308523
0.392109
0.475173
0.557579
0.639192
0.719904
0.799501
0.877857
0.954648
1.02952
1.10227
1.17258
1.24001
1.30429
1.36509
1.42193
1.47475
0.165144
0.247991
0.330609
0.412854
0.494578
0.575643
0.655916
0.735287
0.813544
0.890559
0.96601
1.03954
1.11095
1.17992
1.24601
1.30895
1.36841
1.42391
1.47539
0.181347
0.263317
0.345058
0.426425
0.507272
0.58746
0.666855
0.745349
0.822728
0.898865
0.973439
1.04609
1.11662
1.18472
1.24993
1.31199
1.37057
1.4252
1.4758
0.187949
0.269561
0.350944
0.431953
0.512442
0.59227
0.671307
0.749442
0.826462
0.902241
0.976456
1.04875
1.11892
1.18666
1.25151
1.31322
1.37144
1.4257
1.47595
0.183934
0.265763
0.347361
0.428586
0.50929
0.589334
0.668586
0.746937
0.824172
0.900166
0.974596
1.04711
1.11749
1.18544
1.25051
1.31243
1.37087
1.42535
1.47581
0.169001
0.251635
0.33404
0.416071
0.497582
0.578432
0.65849
0.737646
0.815686
0.892487
0.967721
1.04104
1.11223
1.18098
1.24685
1.30958
1.36883
1.42411
1.47538
0.143692
0.227695
0.311467
0.394865
0.477743
0.55996
0.641385
0.721908
0.801315
0.879482
0.956083
1.03077
1.10332
1.17345
1.24068
1.30478
1.36539
1.42204
1.47467
0.109255
0.195119
0.280753
0.366012
0.450751
0.534828
0.618114
0.700498
0.781766
0.861793
0.940254
1.0168
1.09121
1.1632
1.23229
1.29825
1.36072
1.41923
1.47372
0.067297
0.155429
0.243332
0.330859
0.417865
0.50421
0.589764
0.674415
0.75795
0.840245
0.920973
0.999783
1.07646
1.15072
1.22208
1.2903
1.35504
1.41581
1.47258
)
;

boundaryField
{
    up
    {
        type            calculated;
        value           nonuniform List<scalar> 
84
(
1.5
1.5
1.5
1.5
1.5
1.5
1.5
1.5
1.5
1.5
1.5
1.5
1.5
1.5
1.5
1.5
1.5
1.5
1.5
1.5
1.5
1.5
1.5
1.5
1.46582
1.39668
1.32675
1.25683
1.1869
1.11698
1.04705
0.977123
0.907196
0.83727
0.783136
0.762085
0.758463
0.755388
0.75301
0.751302
0.750199
0.749538
0.749536
0.750192
0.751293
0.752998
0.755371
0.75844
0.762057
0.782867
0.836801
0.906768
0.976695
1.04662
1.11655
1.18647
1.2564
1.32633
1.39625
1.46561
1.5
1.5
1.5
1.5
1.5
1.5
1.5
1.5
1.5
1.5
1.5
1.5
1.5
1.5
1.5
1.5
1.5
1.5
1.5
1.5
1.5
1.5
1.5
1.5
)
;
    }
    low
    {
        type            calculated;
        value           nonuniform List<scalar> 
84
(
0.0232491
0.0663169
0.101656
0.127618
0.142929
0.147032
0.140239
0.123592
0.0981558
0.0660029
0.0291588
-0.0121901
-0.0570839
-0.104017
-0.152553
-0.202271
-0.252309
-0.302027
-0.35151
-0.400125
-0.446451
-0.489568
-0.528387
-0.561253
-0.585975
-0.599449
-0.598922
-0.584155
-0.55768
-0.522523
-0.481946
-0.438688
-0.393794
-0.348513
-0.304232
-0.261789
-0.2226
-0.188649
-0.160824
-0.139363
-0.124602
-0.116762
-0.116762
-0.124601
-0.139362
-0.160823
-0.188648
-0.222599
-0.261788
-0.30423
-0.348511
-0.393792
-0.438686
-0.481944
-0.522521
-0.55768
-0.584154
-0.598922
-0.599449
-0.585976
-0.561255
-0.528389
-0.48957
-0.446453
-0.400127
-0.351512
-0.302029
-0.252312
-0.202273
-0.152555
-0.104019
-0.0570859
-0.0121921
0.0291567
0.066001
0.0981546
0.123591
0.140239
0.147032
0.142929
0.127619
0.101656
0.0663171
0.0232492
)
;
    }
    left
    {
        type            calculated;
        value           nonuniform List<scalar> 
19
(
0.0447319
0.134082
0.223202
0.311948
0.400174
0.487738
0.574512
0.660383
0.745139
0.828654
0.910605
0.990638
1.06854
1.14402
1.21661
1.28605
1.35202
1.41402
1.47201
)
;
    }
    right
    {
        type            calculated;
        value           nonuniform List<scalar> 
19
(
0.0447319
0.134082
0.223202
0.311948
0.400174
0.487738
0.574512
0.660383
0.745139
0.828654
0.910605
0.990638
1.06854
1.14402
1.21661
1.28605
1.35202
1.41402
1.47201
)
;
    }
    frontAndBackPlanes
    {
        type            empty;
    }
}


// ************************************************************************* //
