/*--------------------------------*- C++ -*----------------------------------*\
  =========                 |
  \\      /  F ield         | OpenFOAM: The Open Source CFD Toolbox
   \\    /   O peration     | Website:  https://openfoam.org
    \\  /    A nd           | Version:  6
     \\/     M anipulation  |
\*---------------------------------------------------------------------------*/
FoamFile
{
    version     2.0;
    format      ascii;
    class       volScalarField;
    location    "120";
    object      T;
}
// * * * * * * * * * * * * * * * * * * * * * * * * * * * * * * * * * * * * * //

dimensions      [0 0 0 1 0 0 0];

internalField   nonuniform List<scalar> 
13524
(
0.00732936
0.0221792
0.0371919
0.0523676
0.067708
0.0832151
0.098892
0.114742
0.130769
0.146976
0.163367
0.179947
0.196721
0.213691
0.230864
0.248244
0.265836
0.283645
0.301677
0.319937
0.338432
0.357166
0.376147
0.395382
0.414876
0.434637
0.454673
0.474991
0.495599
0.516506
0.537721
0.559252
0.58111
0.603305
0.625846
0.648745
0.672013
0.695663
0.719707
0.744158
0.769031
0.794341
0.820103
0.846333
0.87305
0.900272
0.92802
0.956319
0.985197
0.00736029
0.0222418
0.0372714
0.0524564
0.0678019
0.0833121
0.0989908
0.114842
0.130869
0.147077
0.163469
0.180049
0.196823
0.213794
0.230967
0.248346
0.265938
0.283748
0.30178
0.32004
0.338534
0.357269
0.37625
0.395484
0.414978
0.43474
0.454776
0.475094
0.495702
0.516609
0.537824
0.559355
0.581213
0.603407
0.625948
0.648847
0.672116
0.695765
0.719809
0.744261
0.769134
0.794443
0.820205
0.846435
0.873151
0.900371
0.928115
0.956403
0.98525
0.00733962
0.0222069
0.0372332
0.0524188
0.067766
0.083278
0.0989583
0.114811
0.130839
0.147047
0.16344
0.18002
0.196794
0.213765
0.230938
0.248318
0.26591
0.283719
0.301751
0.320011
0.338506
0.357241
0.376222
0.395456
0.41495
0.434711
0.454747
0.475065
0.495674
0.516581
0.537795
0.559327
0.581185
0.603379
0.62592
0.648819
0.672087
0.695737
0.719781
0.744233
0.769105
0.794415
0.820176
0.846405
0.87312
0.900339
0.92808
0.956365
0.985218
0.00736463
0.0222546
0.0372916
0.0524826
0.067833
0.0833469
0.0990285
0.114882
0.130911
0.14712
0.163512
0.180094
0.196867
0.213838
0.231012
0.248392
0.265984
0.283793
0.301825
0.320085
0.33858
0.357314
0.376296
0.39553
0.415024
0.434785
0.454821
0.475139
0.495748
0.516655
0.537869
0.559401
0.581259
0.603453
0.625994
0.648893
0.672161
0.695811
0.719855
0.744306
0.769179
0.794488
0.820249
0.846478
0.873192
0.900409
0.928148
0.956426
0.985259
0.00734122
0.0222116
0.0372405
0.0524284
0.0677776
0.0832912
0.0989728
0.114826
0.130855
0.147064
0.163457
0.180038
0.196812
0.213783
0.230956
0.248337
0.265929
0.283738
0.30177
0.32003
0.338525
0.357259
0.37624
0.395475
0.414969
0.43473
0.454766
0.475084
0.495693
0.5166
0.537814
0.559346
0.581204
0.603398
0.625939
0.648838
0.672106
0.695756
0.7198
0.744251
0.769124
0.794433
0.820194
0.846422
0.873136
0.900354
0.928093
0.956374
0.985221
0.00736306
0.0222506
0.0372857
0.0524754
0.0678248
0.083338
0.0990191
0.114872
0.130901
0.14711
0.163502
0.180083
0.196857
0.213828
0.231001
0.248381
0.265973
0.283783
0.301815
0.320075
0.33857
0.357304
0.376285
0.39552
0.415014
0.434775
0.454811
0.475129
0.495737
0.516645
0.537859
0.559391
0.581249
0.603443
0.625984
0.648883
0.672151
0.695801
0.719845
0.744296
0.769169
0.794478
0.820239
0.846468
0.873182
0.9004
0.92814
0.95642
0.985256
0.00733745
0.0222006
0.0372236
0.0524068
0.0677524
0.0832633
0.0989428
0.114795
0.130823
0.147031
0.163423
0.180004
0.196778
0.213749
0.230922
0.248302
0.265894
0.283703
0.301735
0.319995
0.33849
0.357224
0.376205
0.39544
0.414934
0.434695
0.454731
0.475049
0.495658
0.516565
0.537779
0.559311
0.581169
0.603363
0.625904
0.648803
0.672071
0.695721
0.719765
0.744216
0.769089
0.794399
0.82016
0.846389
0.873104
0.900324
0.928067
0.956355
0.985213
0.00735157
0.0222242
0.0372493
0.0524318
0.0677759
0.0832854
0.0989638
0.114815
0.130842
0.14705
0.163442
0.180022
0.196796
0.213766
0.230939
0.248319
0.265911
0.28372
0.301752
0.320013
0.338507
0.357242
0.376223
0.395457
0.414951
0.434712
0.454748
0.475066
0.495675
0.516582
0.537797
0.559328
0.581186
0.60338
0.625921
0.64882
0.672089
0.695738
0.719782
0.744234
0.769107
0.794416
0.820178
0.846408
0.873124
0.900345
0.92809
0.95638
0.985235
0.00733795
0.0221967
0.0372141
0.0523924
0.0677342
0.0832421
0.0989195
0.11477
0.130797
0.147004
0.163396
0.179976
0.19675
0.21372
0.230893
0.248273
0.265865
0.283674
0.301706
0.319966
0.338461
0.357195
0.376176
0.395411
0.414905
0.434666
0.454702
0.47502
0.495628
0.516535
0.53775
0.559282
0.58114
0.603334
0.625875
0.648774
0.672042
0.695692
0.719736
0.744188
0.769061
0.79437
0.820132
0.846362
0.873079
0.9003
0.928047
0.956343
0.985212
0.00733298
0.0221882
0.0372048
0.0523832
0.0677252
0.0832335
0.0989113
0.114762
0.130789
0.146996
0.163388
0.179969
0.196742
0.213713
0.230886
0.248265
0.265857
0.283667
0.301698
0.319959
0.338453
0.357188
0.376169
0.395403
0.414897
0.434658
0.454694
0.475012
0.495621
0.516528
0.537743
0.559274
0.581132
0.603326
0.625867
0.648766
0.672034
0.695684
0.719728
0.74418
0.769053
0.794362
0.820124
0.846354
0.873071
0.900292
0.928039
0.956333
0.985204
0.00735942
0.022241
0.0372713
0.0524573
0.0678036
0.0833145
0.0989939
0.114846
0.130873
0.147081
0.163473
0.180054
0.196828
0.213799
0.230972
0.248351
0.265943
0.283753
0.301784
0.320045
0.338539
0.357273
0.376255
0.395489
0.414983
0.434744
0.45478
0.475098
0.495706
0.516614
0.537828
0.55936
0.581218
0.603412
0.625953
0.648852
0.67212
0.69577
0.719814
0.744266
0.769139
0.794448
0.82021
0.846439
0.873155
0.900375
0.928118
0.956404
0.985249
0.0073408
0.022209
0.0372356
0.0524215
0.0677689
0.0832812
0.0989617
0.114814
0.130843
0.147051
0.163444
0.180025
0.196798
0.213769
0.230942
0.248322
0.265914
0.283723
0.301755
0.320015
0.33851
0.357244
0.376225
0.395459
0.414954
0.434715
0.454751
0.475069
0.495677
0.516584
0.537799
0.559331
0.581188
0.603383
0.625924
0.648823
0.672091
0.695741
0.719785
0.744236
0.769109
0.794419
0.82018
0.846409
0.873124
0.900342
0.928084
0.956368
0.98522
0.00736153
0.0222483
0.0372836
0.0524737
0.0678236
0.0833374
0.0990189
0.114872
0.130901
0.14711
0.163503
0.180084
0.196858
0.213829
0.231002
0.248382
0.265974
0.283783
0.301815
0.320075
0.338569
0.357304
0.376285
0.395519
0.415013
0.434774
0.45481
0.475128
0.495736
0.516644
0.537858
0.55939
0.581248
0.603442
0.625983
0.648882
0.67215
0.6958
0.719844
0.744296
0.769169
0.794478
0.820239
0.846468
0.873182
0.9004
0.928139
0.956418
0.985254
0.00734224
0.0222128
0.0372414
0.0524289
0.0677778
0.0832912
0.0989727
0.114826
0.130855
0.147064
0.163457
0.180038
0.196811
0.213782
0.230955
0.248335
0.265927
0.283736
0.301768
0.320028
0.338523
0.357257
0.376238
0.395472
0.414966
0.434728
0.454763
0.475081
0.49569
0.516597
0.537812
0.559343
0.581201
0.603395
0.625937
0.648836
0.672104
0.695754
0.719798
0.74425
0.769123
0.794432
0.820193
0.846422
0.873136
0.900354
0.928093
0.956375
0.985223
0.00735978
0.0222444
0.0372783
0.0524676
0.0678168
0.08333
0.099011
0.114864
0.130893
0.147101
0.163494
0.180075
0.196848
0.213819
0.230992
0.248372
0.265964
0.283773
0.301804
0.320064
0.338559
0.357293
0.376274
0.395508
0.415002
0.434764
0.454799
0.475117
0.495726
0.516633
0.537848
0.559379
0.581237
0.603431
0.625973
0.648872
0.67214
0.69579
0.719834
0.744286
0.769159
0.794469
0.82023
0.846459
0.873174
0.900392
0.928132
0.956412
0.985251
0.00734107
0.0222085
0.037234
0.0524188
0.0677653
0.0832767
0.0989566
0.114808
0.130836
0.147044
0.163436
0.180017
0.19679
0.213761
0.230934
0.248313
0.265905
0.283714
0.301746
0.320006
0.3385
0.357234
0.376215
0.395449
0.414943
0.434705
0.45474
0.475058
0.495667
0.516574
0.537789
0.55932
0.581178
0.603372
0.625914
0.648813
0.672081
0.695731
0.719776
0.744227
0.769101
0.794411
0.820172
0.846402
0.873118
0.900337
0.92808
0.956366
0.98522
0.00735521
0.0222325
0.0372603
0.0524445
0.0677896
0.0832996
0.0989781
0.114829
0.130856
0.147063
0.163455
0.180035
0.196808
0.213778
0.230951
0.24833
0.265922
0.283731
0.301762
0.320022
0.338516
0.357251
0.376231
0.395465
0.41496
0.434721
0.454757
0.475075
0.495683
0.51659
0.537805
0.559336
0.581194
0.603389
0.62593
0.648829
0.672098
0.695748
0.719792
0.744244
0.769118
0.794428
0.82019
0.846421
0.873138
0.900359
0.928104
0.956392
0.985242
0.00733617
0.0221943
0.0372119
0.0523904
0.0677321
0.0832397
0.0989165
0.114766
0.130792
0.146999
0.16339
0.17997
0.196742
0.213712
0.230885
0.248264
0.265855
0.283664
0.301696
0.319955
0.338449
0.357184
0.376165
0.395399
0.414893
0.434654
0.45469
0.475008
0.495616
0.516523
0.537738
0.55927
0.581128
0.603322
0.625863
0.648763
0.672031
0.695681
0.719726
0.744178
0.769052
0.794362
0.820125
0.846357
0.873074
0.900297
0.928045
0.956341
0.985209
0.00734017
0.0222006
0.0372184
0.0523963
0.0677371
0.083244
0.0989202
0.114769
0.130795
0.147001
0.163392
0.179971
0.196744
0.213714
0.230886
0.248265
0.265856
0.283665
0.301696
0.319956
0.33845
0.357184
0.376165
0.395399
0.414893
0.434654
0.45469
0.475008
0.495617
0.516524
0.537739
0.55927
0.581128
0.603323
0.625864
0.648763
0.672032
0.695682
0.719727
0.744179
0.769053
0.794364
0.820127
0.846359
0.873077
0.900301
0.92805
0.956347
0.985215
0.00734694
0.0222143
0.0372357
0.0524154
0.0677572
0.0832645
0.098941
0.11479
0.130816
0.147022
0.163413
0.179992
0.196764
0.213734
0.230906
0.248286
0.265877
0.283685
0.301717
0.319977
0.338471
0.357205
0.376186
0.39542
0.414914
0.434675
0.45471
0.475028
0.495637
0.516544
0.537759
0.55929
0.581148
0.603343
0.625884
0.648784
0.672052
0.695703
0.719747
0.7442
0.769074
0.794385
0.820148
0.84638
0.873098
0.900322
0.92807
0.956365
0.985227
0.00733896
0.0222009
0.0372211
0.0524012
0.0677438
0.0832519
0.098929
0.114779
0.130805
0.147011
0.163402
0.179982
0.196754
0.213724
0.230896
0.248275
0.265867
0.283675
0.301706
0.319966
0.33846
0.357194
0.376175
0.395409
0.414903
0.434664
0.4547
0.475018
0.495626
0.516534
0.537748
0.55928
0.581138
0.603332
0.625874
0.648773
0.672042
0.695692
0.719737
0.744189
0.769064
0.794374
0.820137
0.846369
0.873087
0.90031
0.928057
0.956351
0.985215
0.00735364
0.0222298
0.0372573
0.0524414
0.0677864
0.0832961
0.0989743
0.114825
0.130852
0.147058
0.16345
0.180029
0.196802
0.213772
0.230944
0.248323
0.265915
0.283723
0.301755
0.320015
0.338509
0.357243
0.376224
0.395458
0.414951
0.434713
0.454748
0.475066
0.495675
0.516582
0.537797
0.559328
0.581186
0.603381
0.625922
0.648821
0.67209
0.695741
0.719785
0.744238
0.769112
0.794422
0.820185
0.846416
0.873133
0.900355
0.9281
0.956389
0.985239
0.00734285
0.0222109
0.0372358
0.0524196
0.0677651
0.0832755
0.0989544
0.114806
0.130833
0.14704
0.163432
0.180012
0.196784
0.213755
0.230927
0.248306
0.265898
0.283706
0.301738
0.319998
0.338492
0.357226
0.376207
0.395441
0.414935
0.434696
0.454731
0.475049
0.495658
0.516565
0.53778
0.559311
0.581169
0.603364
0.625905
0.648805
0.672073
0.695724
0.719768
0.74422
0.769094
0.794405
0.820167
0.846398
0.873114
0.900335
0.928079
0.956367
0.985222
0.00735345
0.0222308
0.0372602
0.0524462
0.067793
0.0833043
0.0989839
0.114836
0.130863
0.147071
0.163463
0.180043
0.196816
0.213786
0.230959
0.248338
0.26593
0.283738
0.30177
0.32003
0.338524
0.357258
0.376239
0.395473
0.414967
0.434728
0.454764
0.475082
0.49569
0.516597
0.537812
0.559344
0.581202
0.603396
0.625937
0.648837
0.672105
0.695756
0.7198
0.744252
0.769126
0.794436
0.820198
0.846429
0.873145
0.900365
0.928107
0.956393
0.98524
0.0073443
0.0222141
0.0372403
0.0524253
0.0677718
0.0832832
0.098963
0.114815
0.130843
0.147051
0.163443
0.180023
0.196796
0.213767
0.230939
0.248319
0.26591
0.283719
0.301751
0.320011
0.338505
0.357239
0.37622
0.395454
0.414948
0.434709
0.454745
0.475063
0.495671
0.516578
0.537793
0.559324
0.581182
0.603377
0.625918
0.648817
0.672086
0.695736
0.719781
0.744233
0.769106
0.794416
0.820178
0.846408
0.873124
0.900344
0.928086
0.956372
0.985225
0.00735195
0.0222281
0.037257
0.052443
0.06779
0.0833017
0.0989816
0.114834
0.130862
0.14707
0.163462
0.180042
0.196815
0.213786
0.230959
0.248338
0.26593
0.283739
0.30177
0.32003
0.338524
0.357258
0.376239
0.395473
0.414967
0.434728
0.454764
0.475082
0.49569
0.516598
0.537812
0.559344
0.581202
0.603396
0.625938
0.648837
0.672106
0.695756
0.7198
0.744252
0.769126
0.794436
0.820197
0.846427
0.873143
0.900362
0.928104
0.956389
0.985237
0.00734506
0.0222152
0.0372414
0.0524263
0.0677726
0.083284
0.0989637
0.114816
0.130844
0.147052
0.163444
0.180024
0.196797
0.213768
0.230941
0.24832
0.265912
0.283721
0.301752
0.320012
0.338506
0.357241
0.376221
0.395455
0.414949
0.434711
0.454746
0.475064
0.495673
0.51658
0.537794
0.559326
0.581184
0.603378
0.62592
0.648819
0.672088
0.695738
0.719782
0.744234
0.769108
0.794418
0.820179
0.846409
0.873125
0.900344
0.928087
0.956373
0.985226
0.00735002
0.022224
0.0372517
0.0524368
0.0677832
0.0832944
0.098974
0.114826
0.130854
0.147061
0.163453
0.180034
0.196807
0.213778
0.23095
0.24833
0.265922
0.28373
0.301762
0.320022
0.338516
0.35725
0.376231
0.395465
0.414959
0.43472
0.454756
0.475074
0.495682
0.516589
0.537804
0.559336
0.581194
0.603388
0.62593
0.648829
0.672097
0.695748
0.719792
0.744244
0.769118
0.794427
0.820189
0.846419
0.873135
0.900355
0.928097
0.956384
0.985234
0.00734572
0.0222158
0.0372415
0.0524256
0.0677713
0.0832821
0.0989614
0.114813
0.130841
0.147048
0.16344
0.18002
0.196794
0.213764
0.230937
0.248316
0.265908
0.283717
0.301748
0.320008
0.338502
0.357236
0.376217
0.395451
0.414945
0.434706
0.454742
0.47506
0.495668
0.516576
0.53779
0.559322
0.58118
0.603374
0.625916
0.648815
0.672084
0.695734
0.719778
0.74423
0.769104
0.794414
0.820176
0.846406
0.873122
0.900342
0.928086
0.956373
0.985227
0.00734809
0.0222198
0.0372459
0.05243
0.0677755
0.0832859
0.098965
0.114816
0.130844
0.147051
0.163443
0.180023
0.196796
0.213766
0.230939
0.248318
0.26591
0.283719
0.30175
0.32001
0.338504
0.357238
0.376219
0.395453
0.414947
0.434708
0.454744
0.475062
0.49567
0.516578
0.537792
0.559324
0.581182
0.603376
0.625918
0.648817
0.672086
0.695736
0.719781
0.744233
0.769106
0.794416
0.820178
0.846409
0.873125
0.900346
0.92809
0.956377
0.98523
0.0073464
0.0222164
0.0372415
0.052425
0.06777
0.0832801
0.0989587
0.11481
0.130837
0.147044
0.163436
0.180016
0.196788
0.213759
0.230931
0.248311
0.265902
0.283711
0.301742
0.320002
0.338496
0.35723
0.376211
0.395445
0.414939
0.4347
0.454736
0.475054
0.495662
0.51657
0.537784
0.559316
0.581174
0.603368
0.62591
0.648809
0.672078
0.695728
0.719773
0.744225
0.769099
0.794409
0.820171
0.846402
0.873119
0.900339
0.928084
0.956373
0.985228
0.0073462
0.0222158
0.0372405
0.0524235
0.0677681
0.0832778
0.0989561
0.114807
0.130834
0.147041
0.163432
0.180012
0.196785
0.213755
0.230927
0.248307
0.265898
0.283707
0.301738
0.319998
0.338492
0.357226
0.376207
0.395441
0.414935
0.434696
0.454732
0.47505
0.495658
0.516565
0.53778
0.559312
0.58117
0.603364
0.625906
0.648805
0.672074
0.695724
0.719769
0.744221
0.769095
0.794405
0.820167
0.846398
0.873115
0.900337
0.928082
0.956371
0.985227
0.00734709
0.0222171
0.0372417
0.0524243
0.0677686
0.083278
0.0989561
0.114807
0.130833
0.14704
0.163431
0.180011
0.196784
0.213754
0.230926
0.248305
0.265897
0.283705
0.301737
0.319996
0.33849
0.357225
0.376205
0.395439
0.414933
0.434694
0.45473
0.475048
0.495657
0.516564
0.537778
0.55931
0.581168
0.603363
0.625904
0.648803
0.672072
0.695723
0.719767
0.744219
0.769093
0.794404
0.820166
0.846398
0.873115
0.900337
0.928082
0.956372
0.985228
0.00734399
0.022211
0.037234
0.0524159
0.0677597
0.0832688
0.0989466
0.114797
0.130823
0.14703
0.163421
0.180001
0.196774
0.213744
0.230916
0.248295
0.265886
0.283695
0.301726
0.319986
0.33848
0.357214
0.376195
0.395429
0.414923
0.434684
0.45472
0.475038
0.495646
0.516553
0.537768
0.5593
0.581158
0.603352
0.625894
0.648793
0.672062
0.695712
0.719757
0.744209
0.769083
0.794394
0.820156
0.846388
0.873105
0.900327
0.928073
0.956364
0.985223
0.00734743
0.0222173
0.0372415
0.0524238
0.0677677
0.0832768
0.0989547
0.114805
0.130831
0.147038
0.163429
0.180009
0.196781
0.213751
0.230924
0.248303
0.265894
0.283703
0.301734
0.319994
0.338488
0.357222
0.376203
0.395437
0.414931
0.434692
0.454727
0.475045
0.495654
0.516561
0.537776
0.559307
0.581165
0.60336
0.625901
0.648801
0.672069
0.69572
0.719765
0.744217
0.769091
0.794401
0.820164
0.846396
0.873113
0.900335
0.928081
0.956372
0.985229
0.00734394
0.0222109
0.037234
0.0524159
0.0677597
0.0832688
0.0989467
0.114797
0.130823
0.14703
0.163421
0.180001
0.196774
0.213744
0.230916
0.248295
0.265886
0.283695
0.301726
0.319986
0.33848
0.357214
0.376195
0.395429
0.414923
0.434684
0.45472
0.475038
0.495646
0.516553
0.537768
0.5593
0.581158
0.603352
0.625894
0.648793
0.672062
0.695712
0.719757
0.744209
0.769083
0.794394
0.820156
0.846388
0.873105
0.900327
0.928073
0.956364
0.985223
0.00734708
0.0222171
0.0372417
0.0524244
0.0677687
0.0832781
0.0989562
0.114807
0.130833
0.14704
0.163431
0.180011
0.196784
0.213754
0.230926
0.248306
0.265897
0.283705
0.301737
0.319997
0.338491
0.357225
0.376206
0.395439
0.414933
0.434695
0.45473
0.475048
0.495657
0.516564
0.537778
0.55931
0.581168
0.603363
0.625904
0.648803
0.672072
0.695723
0.719767
0.744219
0.769093
0.794404
0.820167
0.846398
0.873115
0.900337
0.928082
0.956372
0.985228
0.00734624
0.0222159
0.0372406
0.0524235
0.0677682
0.0832778
0.0989562
0.114807
0.130834
0.147041
0.163432
0.180012
0.196785
0.213755
0.230927
0.248307
0.265898
0.283707
0.301738
0.319998
0.338492
0.357226
0.376207
0.395441
0.414935
0.434696
0.454732
0.47505
0.495658
0.516565
0.53778
0.559312
0.58117
0.603364
0.625905
0.648805
0.672074
0.695724
0.719769
0.744221
0.769095
0.794405
0.820167
0.846398
0.873115
0.900337
0.928082
0.956371
0.985227
0.00734644
0.0222165
0.0372416
0.052425
0.06777
0.0832801
0.0989588
0.11481
0.130837
0.147044
0.163436
0.180016
0.196789
0.213759
0.230931
0.248311
0.265902
0.283711
0.301742
0.320002
0.338496
0.35723
0.376211
0.395445
0.414939
0.4347
0.454736
0.475054
0.495662
0.51657
0.537784
0.559316
0.581174
0.603368
0.62591
0.648809
0.672078
0.695728
0.719773
0.744225
0.769099
0.794409
0.820171
0.846402
0.873119
0.900339
0.928084
0.956373
0.985228
0.00734807
0.0222198
0.0372459
0.05243
0.0677755
0.083286
0.098965
0.114816
0.130844
0.147051
0.163443
0.180023
0.196796
0.213766
0.230939
0.248318
0.26591
0.283719
0.30175
0.32001
0.338504
0.357238
0.376219
0.395453
0.414947
0.434708
0.454744
0.475062
0.49567
0.516578
0.537792
0.559324
0.581182
0.603376
0.625918
0.648817
0.672086
0.695736
0.719781
0.744233
0.769106
0.794416
0.820178
0.846409
0.873125
0.900346
0.92809
0.956377
0.98523
0.00734567
0.0222157
0.0372414
0.0524256
0.0677713
0.0832821
0.0989614
0.114813
0.13084
0.147048
0.16344
0.18002
0.196793
0.213764
0.230937
0.248316
0.265908
0.283716
0.301748
0.320008
0.338502
0.357236
0.376217
0.395451
0.414945
0.434706
0.454742
0.47506
0.495668
0.516576
0.53779
0.559322
0.58118
0.603374
0.625916
0.648815
0.672084
0.695734
0.719778
0.74423
0.769104
0.794414
0.820176
0.846406
0.873122
0.900342
0.928086
0.956373
0.985227
0.00735002
0.022224
0.0372517
0.0524369
0.0677832
0.0832944
0.098974
0.114826
0.130854
0.147061
0.163453
0.180034
0.196807
0.213778
0.23095
0.24833
0.265921
0.28373
0.301762
0.320022
0.338516
0.35725
0.376231
0.395465
0.414959
0.43472
0.454756
0.475074
0.495682
0.516589
0.537804
0.559336
0.581194
0.603388
0.62593
0.648829
0.672097
0.695748
0.719792
0.744244
0.769118
0.794427
0.820189
0.846419
0.873135
0.900355
0.928097
0.956384
0.985234
0.0073451
0.0222152
0.0372415
0.0524263
0.0677726
0.0832839
0.0989637
0.114816
0.130844
0.147051
0.163444
0.180024
0.196797
0.213768
0.230941
0.24832
0.265912
0.283721
0.301752
0.320012
0.338506
0.35724
0.376221
0.395455
0.414949
0.43471
0.454746
0.475064
0.495673
0.51658
0.537795
0.559326
0.581184
0.603379
0.62592
0.648819
0.672088
0.695738
0.719782
0.744234
0.769108
0.794418
0.820179
0.846409
0.873125
0.900344
0.928087
0.956373
0.985226
0.00735196
0.0222281
0.037257
0.052443
0.06779
0.0833016
0.0989816
0.114834
0.130862
0.147069
0.163462
0.180042
0.196815
0.213786
0.230959
0.248338
0.26593
0.283739
0.30177
0.32003
0.338524
0.357258
0.376239
0.395473
0.414967
0.434728
0.454764
0.475082
0.495691
0.516598
0.537812
0.559344
0.581202
0.603396
0.625938
0.648837
0.672106
0.695756
0.7198
0.744252
0.769126
0.794436
0.820197
0.846427
0.873143
0.900362
0.928104
0.956389
0.985237
0.00734428
0.0222141
0.0372403
0.0524253
0.0677718
0.0832832
0.098963
0.114815
0.130843
0.147051
0.163443
0.180023
0.196796
0.213767
0.230939
0.248319
0.26591
0.283719
0.301751
0.320011
0.338505
0.357239
0.37622
0.395454
0.414948
0.434709
0.454745
0.475063
0.495671
0.516578
0.537793
0.559325
0.581183
0.603377
0.625918
0.648818
0.672086
0.695737
0.719781
0.744233
0.769107
0.794417
0.820178
0.846409
0.873124
0.900344
0.928086
0.956372
0.985225
0.00735343
0.0222308
0.0372601
0.0524462
0.067793
0.0833043
0.0989839
0.114836
0.130863
0.147071
0.163463
0.180043
0.196816
0.213786
0.230959
0.248338
0.26593
0.283739
0.30177
0.32003
0.338524
0.357258
0.376239
0.395473
0.414967
0.434728
0.454764
0.475082
0.49569
0.516597
0.537812
0.559344
0.581202
0.603396
0.625938
0.648837
0.672106
0.695756
0.7198
0.744252
0.769126
0.794436
0.820198
0.846429
0.873145
0.900365
0.928107
0.956393
0.98524
0.00734284
0.0222108
0.0372358
0.0524197
0.0677651
0.0832756
0.0989545
0.114806
0.130833
0.14704
0.163432
0.180012
0.196785
0.213755
0.230927
0.248307
0.265898
0.283707
0.301738
0.319998
0.338492
0.357226
0.376207
0.395441
0.414935
0.434696
0.454732
0.47505
0.495658
0.516565
0.53778
0.559312
0.58117
0.603364
0.625906
0.648805
0.672074
0.695724
0.719768
0.744221
0.769094
0.794405
0.820167
0.846398
0.873114
0.900335
0.928079
0.956367
0.985222
0.00735368
0.0222299
0.0372574
0.0524415
0.0677865
0.0832962
0.0989744
0.114825
0.130852
0.147059
0.16345
0.180029
0.196802
0.213772
0.230944
0.248324
0.265915
0.283724
0.301755
0.320015
0.338509
0.357243
0.376224
0.395458
0.414952
0.434713
0.454749
0.475067
0.495675
0.516582
0.537797
0.559329
0.581187
0.603381
0.625922
0.648822
0.67209
0.695741
0.719785
0.744238
0.769112
0.794422
0.820185
0.846416
0.873133
0.900355
0.9281
0.956389
0.985239
0.00733901
0.022201
0.0372212
0.0524013
0.0677438
0.083252
0.0989291
0.114779
0.130805
0.147011
0.163402
0.179982
0.196754
0.213724
0.230896
0.248276
0.265867
0.283675
0.301707
0.319967
0.338461
0.357195
0.376176
0.39541
0.414903
0.434665
0.4547
0.475018
0.495627
0.516534
0.537749
0.55928
0.581138
0.603333
0.625874
0.648773
0.672042
0.695693
0.719737
0.74419
0.769064
0.794374
0.820137
0.846369
0.873087
0.90031
0.928057
0.956351
0.985215
0.0073469
0.0222142
0.0372356
0.0524154
0.0677572
0.0832646
0.0989411
0.11479
0.130816
0.147022
0.163413
0.179992
0.196765
0.213734
0.230907
0.248286
0.265877
0.283686
0.301717
0.319977
0.338471
0.357205
0.376186
0.39542
0.414914
0.434675
0.454711
0.475029
0.495637
0.516544
0.537759
0.559291
0.581149
0.603343
0.625884
0.648784
0.672052
0.695703
0.719747
0.7442
0.769074
0.794385
0.820148
0.84638
0.873098
0.900322
0.92807
0.956365
0.985227
0.00734016
0.0222006
0.0372185
0.0523964
0.0677372
0.0832441
0.0989203
0.114769
0.130795
0.147001
0.163392
0.179971
0.196744
0.213714
0.230886
0.248265
0.265856
0.283665
0.301696
0.319956
0.33845
0.357185
0.376165
0.395399
0.414893
0.434655
0.45469
0.475008
0.495617
0.516524
0.537739
0.55927
0.581128
0.603323
0.625864
0.648763
0.672032
0.695682
0.719727
0.744179
0.769053
0.794364
0.820127
0.846359
0.873077
0.900301
0.92805
0.956347
0.985215
0.0073362
0.0221943
0.037212
0.0523905
0.0677321
0.0832397
0.0989165
0.114766
0.130792
0.146999
0.16339
0.17997
0.196742
0.213712
0.230885
0.248264
0.265855
0.283664
0.301696
0.319955
0.338449
0.357184
0.376165
0.395399
0.414893
0.434654
0.45469
0.475008
0.495616
0.516523
0.537738
0.55927
0.581127
0.603322
0.625863
0.648762
0.672031
0.695681
0.719726
0.744178
0.769052
0.794362
0.820125
0.846356
0.873074
0.900297
0.928045
0.956341
0.985209
0.00735521
0.0222325
0.0372603
0.0524445
0.0677897
0.0832996
0.0989781
0.114829
0.130856
0.147063
0.163455
0.180035
0.196808
0.213778
0.230951
0.24833
0.265922
0.28373
0.301762
0.320022
0.338516
0.35725
0.376231
0.395465
0.414959
0.434721
0.454756
0.475074
0.495683
0.51659
0.537805
0.559336
0.581194
0.603389
0.62593
0.648829
0.672098
0.695748
0.719792
0.744244
0.769118
0.794428
0.82019
0.846421
0.873138
0.900359
0.928104
0.956392
0.985242
0.00734106
0.0222085
0.037234
0.0524188
0.0677653
0.0832767
0.0989565
0.114808
0.130836
0.147044
0.163436
0.180017
0.19679
0.213761
0.230934
0.248313
0.265905
0.283714
0.301746
0.320006
0.3385
0.357234
0.376215
0.395449
0.414943
0.434705
0.45474
0.475058
0.495667
0.516574
0.537789
0.55932
0.581178
0.603372
0.625914
0.648813
0.672081
0.695731
0.719776
0.744228
0.769101
0.794411
0.820172
0.846402
0.873118
0.900337
0.92808
0.956366
0.98522
0.00735978
0.0222444
0.0372783
0.0524676
0.0678168
0.08333
0.0990111
0.114864
0.130893
0.147101
0.163494
0.180075
0.196848
0.213819
0.230992
0.248372
0.265964
0.283773
0.301805
0.320065
0.338559
0.357293
0.376274
0.395508
0.415003
0.434764
0.4548
0.475118
0.495726
0.516633
0.537848
0.559379
0.581237
0.603432
0.625973
0.648872
0.67214
0.69579
0.719835
0.744286
0.769159
0.794469
0.82023
0.846459
0.873174
0.900392
0.928132
0.956412
0.985251
0.00734227
0.0222128
0.0372414
0.052429
0.0677779
0.0832913
0.0989728
0.114826
0.130855
0.147064
0.163457
0.180038
0.196812
0.213783
0.230956
0.248336
0.265928
0.283737
0.301769
0.320029
0.338523
0.357258
0.376239
0.395473
0.414967
0.434728
0.454764
0.475082
0.49569
0.516597
0.537812
0.559344
0.581202
0.603396
0.625937
0.648836
0.672105
0.695754
0.719798
0.74425
0.769123
0.794432
0.820193
0.846422
0.873136
0.900354
0.928093
0.956375
0.985223
0.00736153
0.0222483
0.0372836
0.0524738
0.0678237
0.0833374
0.099019
0.114872
0.130901
0.14711
0.163503
0.180084
0.196858
0.213829
0.231002
0.248382
0.265974
0.283783
0.301815
0.320075
0.33857
0.357304
0.376285
0.395519
0.415013
0.434775
0.454811
0.475129
0.495737
0.516644
0.537859
0.55939
0.581248
0.603443
0.625984
0.648883
0.672151
0.695801
0.719845
0.744296
0.769169
0.794478
0.820239
0.846468
0.873183
0.9004
0.928139
0.956418
0.985254
0.0073408
0.022209
0.0372357
0.0524215
0.067769
0.0832813
0.0989618
0.114814
0.130843
0.147051
0.163444
0.180025
0.196799
0.21377
0.230943
0.248323
0.265915
0.283724
0.301756
0.320016
0.33851
0.357245
0.376226
0.39546
0.414954
0.434716
0.454751
0.475069
0.495678
0.516585
0.5378
0.559331
0.581189
0.603383
0.625924
0.648823
0.672092
0.695742
0.719786
0.744237
0.76911
0.794419
0.82018
0.84641
0.873124
0.900343
0.928084
0.956368
0.98522
0.00735946
0.0222411
0.0372715
0.0524574
0.0678038
0.0833147
0.0989941
0.114846
0.130874
0.147082
0.163474
0.180054
0.196828
0.213799
0.230972
0.248352
0.265944
0.283753
0.301785
0.320045
0.338539
0.357274
0.376255
0.395489
0.414983
0.434745
0.454781
0.475099
0.495707
0.516614
0.537829
0.55936
0.581218
0.603413
0.625954
0.648853
0.672121
0.695771
0.719815
0.744266
0.769139
0.794449
0.82021
0.84644
0.873155
0.900375
0.928118
0.956404
0.985249
0.007333
0.0221882
0.0372048
0.0523832
0.0677253
0.0832336
0.0989114
0.114762
0.130789
0.146997
0.163388
0.179969
0.196742
0.213713
0.230886
0.248266
0.265858
0.283667
0.301699
0.319959
0.338453
0.357188
0.376169
0.395403
0.414898
0.434659
0.454695
0.475013
0.495621
0.516528
0.537743
0.559275
0.581132
0.603327
0.625868
0.648767
0.672035
0.695685
0.719729
0.74418
0.769053
0.794363
0.820124
0.846354
0.873071
0.900292
0.928039
0.956333
0.985204
0.00733796
0.0221966
0.0372142
0.0523925
0.0677343
0.0832423
0.0989197
0.11477
0.130797
0.147004
0.163396
0.179976
0.19675
0.213721
0.230893
0.248273
0.265865
0.283675
0.301706
0.319967
0.338461
0.357196
0.376177
0.395411
0.414905
0.434666
0.454702
0.47502
0.495629
0.516536
0.537751
0.559282
0.58114
0.603334
0.625875
0.648774
0.672043
0.695692
0.719736
0.744188
0.769061
0.79437
0.820132
0.846362
0.873079
0.9003
0.928048
0.956343
0.985212
0.00735158
0.0222243
0.0372493
0.0524318
0.067776
0.0832855
0.0989639
0.114815
0.130842
0.14705
0.163442
0.180022
0.196796
0.213767
0.23094
0.248319
0.265911
0.283721
0.301753
0.320013
0.338507
0.357242
0.376223
0.395457
0.414951
0.434713
0.454749
0.475067
0.495675
0.516582
0.537797
0.559328
0.581186
0.60338
0.625922
0.64882
0.672089
0.695738
0.719782
0.744234
0.769107
0.794416
0.820178
0.846408
0.873124
0.900345
0.92809
0.95638
0.985235
0.00733744
0.0222007
0.0372237
0.0524069
0.0677525
0.0832634
0.098943
0.114795
0.130823
0.147031
0.163423
0.180004
0.196778
0.213749
0.230922
0.248302
0.265894
0.283703
0.301735
0.319995
0.33849
0.357224
0.376206
0.39544
0.414934
0.434695
0.454731
0.475049
0.495658
0.516565
0.53778
0.559311
0.581169
0.603363
0.625904
0.648803
0.672071
0.695721
0.719765
0.744216
0.769089
0.794398
0.82016
0.846389
0.873104
0.900324
0.928067
0.956355
0.985213
0.00736309
0.0222506
0.0372858
0.0524755
0.0678249
0.0833381
0.0990193
0.114872
0.130901
0.14711
0.163502
0.180084
0.196857
0.213828
0.231002
0.248382
0.265974
0.283783
0.301815
0.320075
0.33857
0.357304
0.376286
0.39552
0.415014
0.434775
0.454811
0.475129
0.495738
0.516645
0.537859
0.559391
0.581249
0.603443
0.625984
0.648883
0.672151
0.695801
0.719845
0.744296
0.769169
0.794478
0.820239
0.846468
0.873182
0.9004
0.92814
0.95642
0.985256
0.00734122
0.0222115
0.0372404
0.0524283
0.0677775
0.0832912
0.0989728
0.114826
0.130855
0.147064
0.163457
0.180038
0.196812
0.213783
0.230957
0.248337
0.265929
0.283738
0.30177
0.32003
0.338525
0.357259
0.376241
0.395475
0.414969
0.43473
0.454766
0.475084
0.495693
0.5166
0.537815
0.559346
0.581204
0.603398
0.625939
0.648838
0.672106
0.695756
0.7198
0.744251
0.769124
0.794433
0.820194
0.846423
0.873137
0.900354
0.928093
0.956374
0.985221
0.0073646
0.0222545
0.0372915
0.0524826
0.067833
0.083347
0.0990287
0.114882
0.130911
0.14712
0.163513
0.180094
0.196868
0.213839
0.231012
0.248392
0.265984
0.283793
0.301825
0.320086
0.33858
0.357315
0.376296
0.39553
0.415024
0.434786
0.454822
0.47514
0.495748
0.516655
0.53787
0.559401
0.581259
0.603453
0.625994
0.648893
0.672162
0.695811
0.719855
0.744307
0.769179
0.794488
0.820249
0.846478
0.873192
0.90041
0.928148
0.956427
0.985259
0.00733962
0.022207
0.0372332
0.0524188
0.067766
0.083278
0.0989584
0.114811