/*--------------------------------*- C++ -*----------------------------------*\
  =========                 |
  \\      /  F ield         | OpenFOAM: The Open Source CFD Toolbox
   \\    /   O peration     | Website:  https://openfoam.org
    \\  /    A nd           | Version:  6
     \\/     M anipulation  |
\*---------------------------------------------------------------------------*/
FoamFile
{
    version     2.0;
    format      ascii;
    class       volScalarField;
    location    "120";
    object      gradTx;
}
// * * * * * * * * * * * * * * * * * * * * * * * * * * * * * * * * * * * * * //

dimensions      [0 -1 0 1 0 0 0];

internalField   nonuniform List<scalar> 
13524
(
5.24641
5.30242
5.35898
5.41643
5.47483
5.5343
5.59499
5.65695
5.72027
5.785
5.85118
5.91888
5.98814
6.05903
6.13163
6.206
6.28219
6.36027
6.44031
6.52237
6.60654
6.69291
6.78157
6.87261
6.96614
7.06224
7.16103
7.26262
7.36713
7.47472
7.58551
7.69965
7.81726
7.9385
8.06354
8.19258
8.32582
8.46346
8.60571
8.75282
8.90506
9.06274
9.22617
9.39571
9.57182
9.75511
9.94662
10.1486
10.3676
5.26462
5.31368
5.36653
5.42187
5.47907
5.53786
5.59812
5.65982
5.72298
5.78761
5.85373
5.9214
5.99065
6.06155
6.13415
6.20852
6.28473
6.36283
6.4429
6.52499
6.6092
6.6956
6.78429
6.87536
6.96892
7.06507
7.1639
7.26554
7.3701
7.47772
7.58855
7.70271
7.82036
7.94165
8.06676
8.19586
8.32915
8.46684
8.60914
8.75631
8.90862
9.06636
9.22984
9.39941
9.57549
9.75853
9.94898
10.1467
10.348
5.43876
5.4974
5.55539
5.61394
5.67358
5.73454
5.79688
5.86067
5.92597
5.99282
6.06124
6.13125
6.20291
6.27631
6.35149
6.4285
6.50738
6.58823
6.67111
6.75612
6.84332
6.93278
7.02461
7.11891
7.21577
7.31531
7.41764
7.52288
7.63116
7.74262
7.85737
7.97557
8.09737
8.22295
8.35248
8.48615
8.62416
8.76673
8.91407
9.06645
9.22413
9.38741
9.55661
9.73207
9.91415
10.1033
10.3
10.5056
10.7243
5.51994
5.5723
5.62815
5.68631
5.74627
5.80782
5.87089
5.93548
6.0016
6.06929
6.13856
6.20944
6.28201
6.35633
6.43247
6.51045
6.59034
6.67222
6.75616
6.84225
6.93055
7.02115
7.11415
7.20966
7.30777
7.40859
7.51221
7.61878
7.72842
7.84128
7.95751
8.07724
8.20061
8.3278
8.45897
8.59433
8.73409
8.87847
9.02768
9.18199
9.34165
9.50696
9.67823
9.85576
10.0399
10.2308
10.4287
10.6328
10.839
5.61688
5.67813
5.73859
5.79952
5.86144
5.92461
5.98917
6.0552
6.12274
6.19183
6.26253
6.3349
6.40898
6.48482
6.56248
6.64202
6.72353
6.80708
6.89274
6.98057
7.07064
7.16306
7.25793
7.35536
7.45546
7.55833
7.66408
7.77281
7.88467
7.9998
8.11835
8.24048
8.36634
8.4961
8.62993
8.76803
8.91061
9.0579
9.21012
9.36753
9.5304
9.69901
9.87367
10.0547
10.2423
10.4369
10.6389
10.849
11.0719
5.75562
5.81119
5.87025
5.9316
5.9947
6.05933
6.12546
6.19309
6.26226
6.33301
6.40538
6.47942
6.55522
6.63283
6.71229
6.79366
6.87703
6.96248
7.0501
7.13994
7.23209
7.32663
7.42368
7.52334
7.6257
7.73089
7.83903
7.95026
8.0647
8.18248
8.30375
8.42867
8.55739
8.6901
8.82698
8.96823
9.11407
9.26472
9.42041
9.58141
9.74799
9.92045
10.0991
10.2842
10.4761
10.675
10.8809
11.0929
11.3065
5.78443
5.84866
5.91198
5.97561
6.0401
6.10574
6.17269
6.24104
6.31088
6.38228
6.4553
6.52998
6.60638
6.68459
6.76469
6.84673
6.93078
7.01691
7.1052
7.19573
7.28859
7.38388
7.4817
7.58216
7.68535
7.79138
7.90036
8.01244
8.12775
8.24644
8.36866
8.49457
8.62432
8.75807
8.89602
9.03837
9.18534
9.33718
9.4941
9.65636
9.82426
9.99808
10.1782
10.3648
10.5584
10.7592
10.9676
11.1847
11.4141
5.96799
6.02809
6.09092
6.15557
6.22175
6.28935
6.35835
6.42881
6.50081
6.57441
6.64966
6.72663
6.80536
6.88594
6.96845
7.05296
7.13954
7.22827
7.31924
7.41252
7.50819
7.60634
7.70709
7.81055
7.91685
8.02608
8.13838
8.25385
8.37264
8.4949
8.6208
8.75049
8.88414
9.02193
9.16403
9.31067
9.46208
9.61849
9.78015
9.94732
10.1203
10.2994
10.485
10.6774
10.877
11.0842
11.2994
11.5223
11.7508
5.96088
6.02582
6.09081
6.15648
6.22311
6.2909
6.36001
6.43053
6.50257
6.57619
6.65143
6.72839
6.80715
6.88778
6.97032
7.05485
7.14143
7.23017
7.32115
7.41446
7.51016
7.60835
7.70915
7.81265
7.91897
8.02821
8.14052
8.25602
8.37485
8.49716
8.6231
8.75283
8.88652
9.02433
9.16647
9.31315
9.46461
9.62107
9.78277
9.95
10.1231
10.3023
10.488
10.6805
10.8805
11.0883
11.3046
11.5303
11.7667
6.14587
6.21227
6.27872
6.34594
6.41425
6.48385
6.55488
6.62742
6.70156
6.77737
6.85488
6.93416
7.01529
7.09834
7.18339
7.2705
7.35974
7.45121
7.54497
7.64112
7.73972
7.8409
7.94477
8.05144
8.16103
8.27363
8.38938
8.5084
8.63085
8.75689
8.88668
9.02038
9.15815
9.30019
9.44667
9.59784
9.75393
9.91517
10.0818
10.2542
10.4325
10.6172
10.8086
11.0072
11.2133
11.4277
11.6512
11.8859
12.1375
6.17599
6.23489
6.29771
6.36312
6.43053
6.4997
6.57053
6.643
6.71715
6.793
6.87062
6.95006
7.03135
7.11456
7.19977
7.28706
7.37649
7.46815
7.56213
7.6585
7.75735
7.85877
7.96287
8.06977
8.17958
8.29244
8.40846
8.52776
8.6505
8.77683
8.90691
9.04091
9.179
9.32135
9.46818
9.61969
9.77613
9.93774
10.1048
10.2775
10.4562
10.6413
10.8331
11.032
11.2385
11.4529
11.6756
11.9064
12.1411
6.29581
6.36368
6.43103
6.49908
6.56834
6.63907
6.71138
6.78535
6.86103
6.93845
7.01767
7.09874
7.18174
7.26673
7.35377
7.44292
7.53426
7.62787
7.72385
7.82226
7.92321
8.0268
8.13315
8.24235
8.35453
8.4698
8.58829
8.71013
8.83549
8.96452
9.09739
9.23426
9.3753
9.5207
9.67066
9.82541
9.9852
10.1503
10.3209
10.4973
10.6798
10.8688
11.0646
11.2676
11.4783
11.6969
11.9242
12.1612
12.4124
6.36457
6.42607
6.49111
6.55858
6.62798
6.69912
6.77196
6.84652
6.92284
7.00096
7.0809
7.1627
7.24641
7.33214
7.41995
7.5099
7.60206
7.69653
7.79338
7.8927
7.99456
8.09907
8.20635
8.31653
8.42972
8.54604
8.6656
8.78855
8.91504
9.04523
9.17929
9.31739
9.45971
9.60641
9.75773
9.91388
10.0751
10.2416
10.4138
10.5917
10.7759
10.9666
11.1641
11.3688
11.581
11.8012
12.0294
12.2652
12.5046
6.43261
6.50214
6.57116
6.64086
6.71178
6.78414
6.85808
6.93367
7.01099
7.09011
7.17108
7.25395
7.33876
7.42561
7.51455
7.60564
7.69897
7.79463
7.89271
7.9933
8.09647
8.20233
8.31099
8.42258
8.5372
8.655
8.77609
8.90061
9.02871
9.16057
9.29634
9.43621
9.58033
9.72891
9.88216
10.0403
10.2036
10.3722
10.5466
10.7268
10.9133
11.1064
11.3063
11.5136
11.7284
11.9513
12.1826
12.4236
12.6783
6.53207
6.59595
6.66325
6.73288
6.8044
6.87766
6.95264
7.02937
7.10785
7.18812
7.27023
7.35426
7.44027
7.52833
7.61853
7.71091
7.80556
7.90256
8.00201
8.10398
8.20857
8.31589
8.42606
8.5392
8.65543
8.77486
8.89762
9.02386
9.15374
9.28742
9.42508
9.56688
9.71301
9.86365
10.019
10.1794
10.3449
10.5159
10.6926
10.8754
11.0645
11.2602
11.463
11.6731
11.8909
12.1167
12.3507
12.5924
12.8384
6.55928
6.63027
6.70096
6.77241
6.84507
6.91915
6.9948
7.07211
7.15117
7.23203
7.31474
7.39934
7.48592
7.57456
7.66531
7.75827
7.8535
7.95111
8.05119
8.15381
8.25906
8.36704
8.47788
8.59171
8.70866
8.82883
8.95235
9.07937
9.21005
9.34456
9.48306
9.62574
9.77277
9.92434
10.0807
10.242
10.4086
10.5806
10.7585
10.9424
11.1326
11.3296
11.5337
11.7451
11.9644
12.1919
12.4281
12.6739
12.9332
6.67916
6.74547
6.81504
6.88689
6.96058
7.03598
7.11303
7.19176
7.27223
7.35452
7.43868
7.52476
7.61285
7.70303
7.79536
7.88992
7.98678
8.08606
8.18783
8.2922
8.39924
8.50907
8.6218
8.73757
8.8565
8.9787
9.10433
9.23351
9.36641
9.5032
9.64406
9.78916
9.93868
10.0928
10.2518
10.4159
10.5853
10.7603
10.9412
11.1282
11.3217
11.5221
11.7297
11.945
12.1682
12.3998
12.64
12.8885
13.1417
6.67487
6.74795
6.82076
6.89421
6.96873
7.04459
7.12196
7.20095
7.28164
7.36412
7.44843
7.53467
7.6229
7.7132
7.80567
7.90036
7.99737
8.09679
8.19872
8.30323
8.41041
8.52038
8.63327
8.7492
8.86829
8.99066
9.11646
9.24581
9.37889
9.51587
9.65692
9.80222
9.95195
10.1063
10.2655
10.4298
10.5994
10.7747
10.9558
11.1431
11.337
11.5377
11.7457
11.9613
12.1852
12.4177
12.6595
12.912
13.1781
6.80033
6.87183
6.9447
7.01895
7.09461
7.17176
7.25047
7.33086
7.413
7.49697
7.58282
7.67061
7.76044
7.85239
7.94653
8.04294
8.14169
8.24291
8.34668
8.45308
8.5622
8.67416
8.78909
8.90711
9.02835
9.15294
9.28101
9.4127
9.54819
9.68764
9.83124
9.97917
10.1316
10.2888
10.4508
10.6181
10.7908
10.9692
11.1537
11.3444
11.5417
11.7461
11.958
12.1776
12.4057
12.6427
12.8893
13.1468
13.4168
6.8055
6.87501
6.94676
7.02035
7.09564
7.17258
7.25117
7.33148
7.41356
7.49749
7.58331
7.67109
7.76091
7.85285
7.94699
8.0434
8.14217
8.24339
8.34715
8.45356
8.56269
8.67466
8.78959
8.90762
9.02887
9.15346
9.28154
9.41324
9.54874
9.6882
9.83182
9.97976
10.1322
10.2894
10.4515
10.6188
10.7915
10.9699
11.1543
11.3451
11.5425
11.7469
11.9588
12.1785
12.4066
12.6436
12.89
13.1463
13.4114
6.90287
6.97668
7.05075
7.12585
7.20231
7.28032
7.36
7.44143
7.52467
7.60979
7.69685
7.78591
7.87705
7.97035
8.06587
8.16371
8.26394
8.36667
8.47199
8.57998
8.69074
8.80438
8.92103
9.04082
9.16389
9.29035
9.42034
9.55401
9.69153
9.83308
9.97885
10.129
10.2837
10.4432
10.6078
10.7776
10.9529
11.134
11.3212
11.5148
11.7151
11.9226
12.1376
12.3606
12.592
12.8324
13.0826
13.3436
13.619
6.92506
6.99386
7.06571
7.13984
7.21589
7.29374
7.37336
7.4548
7.5381
7.62331
7.71047
7.79965
7.89092
7.98436
8.08004
8.17803
8.27843
8.38133
8.48682
8.595
8.70595
8.81978
8.93664
9.05664
9.17991
9.30659
9.43681
9.57072
9.70848
9.85028
9.9963
10.1467
10.3017
10.4615
10.6263
10.7964
10.972
11.1535
11.341
11.5349
11.7356
11.9434
12.1587
12.382
12.6137
12.8542
13.1039
13.3626
13.6281
6.99179
7.06605
7.14065
7.21634
7.2935
7.37227
7.45276
7.53504
7.61919
7.70527
7.79334
7.88345
7.97567
8.07009
8.16678
8.26581
8.36727
8.47127
8.57789
8.68722
8.79935
8.91441
9.03251
9.15379
9.27839
9.40643
9.53805
9.67339
9.81263
9.95595
10.1035
10.2556
10.4122
10.5737
10.7403
10.9122
11.0897
11.2731
11.4626
11.6586
11.8614
12.0714
12.289
12.5146
12.7486
12.9915
13.2439
13.5066
13.7827
7.02221
7.09266
7.16581
7.24106
7.31816
7.39705
7.47774
7.56026
7.64466
7.731
7.81934
7.90973
8.00225
8.09697
8.19396
8.29331
8.3951
8.49944
8.60641
8.7161
8.8286
8.94403
9.06252
9.18421
9.30922
9.43769
9.56974
9.70553
9.84523
9.98902
10.1371
10.2896
10.4468
10.6089
10.776
10.9485
11.1265
11.3105
11.5006
11.6973
11.9007
12.1114
12.3296
12.5559
12.7905
13.0341
13.2868
13.5487
13.8181
7.06769
7.14243
7.21774
7.29426
7.37225
7.45185
7.53318
7.61633
7.70137
7.78835
7.87734
7.96838
8.06158
8.15699
8.25471
8.35479
8.45733
8.56242
8.67018
8.78068
8.89402
9.0103
9.12967
9.25225
9.37819
9.50761
9.64064
9.77743
9.91816
10.063
10.2122
10.3659
10.5242
10.6874
10.8558
11.0296
11.209
11.3943
11.5858
11.7839
11.9888
12.201
12.4208
12.6487
12.8851
13.1304
13.3851
13.6503
13.9284
7.10061
7.17253
7.24684
7.32313
7.40122
7.48107
7.5627
7.64617
7.73154
7.81887
7.90821
7.99961
8.09317
8.18896
8.28705
8.38752
8.49046
8.59597
8.70415
8.81508
8.92886
9.0456
9.16543
9.2885
9.41492
9.54484
9.67839
9.81572
9.95701
10.1024
10.2522
10.4065
10.5654
10.7293
10.8983
11.0728
11.2528
11.4389
11.6312
11.83
12.0357
12.2487
12.4694
12.6981
12.9354
13.1816
13.4371
13.7022
13.9758
7.13133
7.20638
7.28226
7.35945
7.43816
7.51852
7.60063
7.68456
7.77038
7.85816
7.94795
8.03982
8.13386
8.23013
8.32872
8.4297
8.53316
8.6392
8.74792
8.8594
8.97375
9.09108
9.21152
9.3352
9.46226
9.59283
9.72705
9.86507
10.0071
10.1532
10.3037
10.4588
10.6185
10.7832
10.9531
11.1284
11.3094
11.4964
11.6896
11.8895
12.0962
12.3103
12.5321
12.762
13.0004
13.2479
13.505
13.7725
14.0524
7.1615
7.23468
7.30997
7.3871
7.46598
7.54661
7.62903
7.71329
7.79944
7.88756
7.9777
8.06993
8.16432
8.26096
8.35992
8.46129
8.56514
8.67158
8.78071
8.89261
9.00739
9.12516
9.24605
9.3702
9.49773
9.6288
9.76352
9.90206
10.0446
10.1913
10.3424
10.498
10.6583
10.8237
10.9942
11.1701
11.3518
11.5395
11.7334
11.934
12.1416
12.3564
12.5791
12.8098
13.0492
13.2976
13.5556
13.8234
14.1007
7.18233
7.25743
7.33369
7.4114
7.49071
7.57169
7.65443
7.73898
7.82545
7.91388
8.00435
8.0969
8.19161
8.28858
8.38789
8.4896
8.5938
8.7006
8.8101
8.92238
9.03755
9.15571
9.27701
9.40157
9.52954
9.66104
9.79621
9.93521
10.0782
10.2254
10.377
10.5331
10.694
10.8599
11.031
11.2075
11.3898
11.5781
11.7727
11.974
12.1822
12.3979
12.6212
12.8528
13.093
13.3424
13.6014
13.8709
14.1521
7.20577
7.28
7.35606
7.43384
7.51332
7.59454
7.67752
7.76235
7.84909
7.93781
8.02856
8.1214
8.21642
8.31369
8.4133
8.51533
8.61985
8.72699
8.83682
8.94945
9.06497
9.18349
9.30516
9.4301
9.55846
9.69036
9.82595
9.96537
10.1088
10.2565
10.4085
10.5651
10.7265
10.8929
11.0645
11.2416
11.4244
11.6133
11.8085
12.0104
12.2193
12.4356
12.6596
12.892
13.1329
13.3831
13.6429
13.9129
14.1932
7.21991
7.29491
7.37141
7.44948
7.52919
7.6106
7.69379
7.77883
7.86578
7.9547
8.04566
8.13871
8.23394
8.33143
8.43126
8.53351
8.63826
8.74563
8.8557
8.96858
9.08435
9.20313
9.32506
9.45027
9.5789
9.71109
9.84697
9.98669
10.1304
10.2784
10.4308
10.5877
10.7495
10.9162
11.0882
11.2656
11.4489
11.6382
11.8338
12.0361
12.2455
12.4622
12.6868
12.9197
13.1612
13.412
13.6725
13.9434
14.2254
7.23415
7.30927
7.3859
7.46413
7.54401
7.62561
7.70899
7.79422
7.88135
7.97047
8.06161
8.15486
8.25029
8.34798
8.44802
8.55047
8.65544
8.76303
8.87332
8.98642
9.10242
9.22145
9.34362
9.46909
9.59798
9.73043
9.86658
10.0066
10.1506
10.2989
10.4515
10.6088
10.7709
10.9379
11.1103
11.2881
11.4717
11.6614
11.8574
12.0601
12.2699
12.4871
12.7122
12.9456
13.1877
13.439
13.7001
13.9716
14.2542
7.24322
7.31797
7.39451
7.47277
7.55275
7.63446
7.71797
7.8033
7.89055
7.97978
8.07104
8.16441
8.25996
8.35778
8.45793
8.56051
8.66561
8.77332
8.88375
8.99699
9.11313
9.23229
9.35461
9.48022
9.60927
9.74188
9.87819
10.0184
10.1626
10.311
10.4638
10.6213
10.7836
10.9508
11.1233
11.3014
11.4852
11.6751
11.8714
12.0744
12.2844
12.5019
12.7273
12.9609
13.2034
13.4551
13.7165
13.9883
14.2705
7.24698
7.32294
7.40008
7.47867
7.55883
7.64068
7.72428
7.8097
7.89703
7.98635
8.0777
8.17116
8.26679
8.36469
8.46493
8.5676
8.67279
8.78059
8.89111
9.00444
9.12068
9.23994
9.36236
9.48808
9.61723
9.74995
9.88638
10.0267
10.171
10.3195
10.4725
10.6301
10.7925
10.9599
11.1326
11.3108
11.4947
11.6848
11.8813
12.0844
12.2946
12.5123
12.7379
12.9718
13.2144
13.4664
13.7283
14.0008
14.2856
7.2512
7.32575
7.40231
7.48067
7.56075
7.64257
7.72616
7.8116
7.89897
7.98831
8.07969
8.17316
8.26882
8.36675
8.46702
8.56972
8.67493
8.78276
8.89331
9.00667
9.12293
9.24223
9.36468
9.49042
9.61961
9.75236
9.88882
10.0291
10.1735
10.3221
10.4751
10.6327
10.7952
10.9626
11.1353
11.3136
11.4976
11.6877
11.8842
12.0874
12.2977
12.5154
12.7411
12.975
13.2177
13.4698
13.7316
14.0037
14.2859
7.24695
7.32295
7.4001
7.47869
7.55885
7.64068
7.72426
7.80969
7.89704
7.98635
8.0777
8.17115
8.26679
8.36469
8.46494
8.5676
8.67279
8.78059
8.89112
9.00445
9.12068
9.23994
9.36236
9.48808
9.61723
9.74995
9.88637
10.0267
10.171
10.3195
10.4725
10.6301
10.7925
10.9599
11.1326
11.3108
11.4947
11.6848
11.8813
12.0844
12.2946
12.5123
12.7379
12.9718
13.2144
13.4664
13.7283
14.0008
14.2856
7.24321
7.31797
7.39452
7.47279
7.55276
7.63446
7.71796
7.8033
7.89056
7.97978
8.07105
8.16441
8.25996
8.35778
8.45794
8.56052
8.66561
8.77333
8.88376
8.99699
9.11313
9.23229
9.35461
9.48022
9.60926
9.74187
9.87818
10.0184
10.1626
10.311
10.4638
10.6213
10.7835
10.9508
11.1233
11.3014
11.4852
11.6751
11.8714
12.0744
12.2844
12.5019
12.7273
12.9609
13.2034
13.4551
13.7165
13.9883
14.2705
7.23418
7.30928
7.3859
7.46413
7.54401
7.62562
7.709
7.79423
7.88136
7.97047
8.06161
8.15486
8.25029
8.34799
8.44802
8.55048
8.65545
8.76303
8.87333
8.98642
9.10242
9.22144
9.34362
9.46908
9.59797
9.73042
9.86657
10.0066
10.1506
10.2989
10.4515
10.6088
10.7709
10.9379
11.1103
11.2881
11.4717
11.6614
11.8574
12.0601
12.2699
12.4872
12.7122
12.9456
13.1877
13.439
13.7001
13.9716
14.2542
7.21994
7.29492
7.3714
7.44947
7.52919
7.61062
7.69381
7.77884
7.86578
7.95471
8.04566
8.13872
8.23395
8.33144
8.43126
8.53351
8.63826
8.74563
8.8557
8.96857
9.08434
9.20312
9.32505
9.45026
9.57889
9.71108
9.84696
9.98668
10.1304
10.2784
10.4308
10.5877
10.7494
10.9162
11.0882
11.2656
11.4489
11.6382
11.8338
12.0361
12.2455
12.4622
12.6868
12.9197
13.1612
13.412
13.6725
13.9434
14.2254
7.20576
7.28
7.35606
7.43384
7.51333
7.59454
7.67752
7.76235
7.8491
7.93782
8.02856
8.1214
8.21642
8.31369
8.4133
8.51533
8.61985
8.72698
8.83681
8.94944
9.06496
9.18349
9.30515
9.43009
9.55845
9.69036
9.82594
9.96537
10.1088
10.2565
10.4085
10.5651
10.7265
10.8929
11.0645
11.2416
11.4244
11.6133
11.8085
12.0104
12.2193
12.4356
12.6596
12.892
13.1329
13.3831
13.6429
13.9129
14.1932
7.1823
7.25742
7.3337
7.41143
7.49072
7.57169
7.65442
7.73898
7.82545
7.91388
8.00434
8.09689
8.19161
8.28858
8.38788
8.48959
8.59379
8.7006
8.81009
8.92238
9.03754
9.15571
9.277
9.40157
9.52954
9.66104
9.79622
9.93522
10.0782
10.2254
10.377
10.5331
10.694
10.8599
11.031
11.2075
11.3898
11.5781
11.7727
11.974
12.1822
12.3979
12.6212
12.8528
13.093
13.3424
13.6014
13.8709
14.1521
7.1615
7.23469
7.30998
7.38711
7.46598
7.5466
7.62902
7.71328
7.79943
7.88755
7.97769
8.06992
8.16432
8.26096
8.35992
8.46128
8.56513
8.67158
8.78071
8.89261
9.00739
9.12516
9.24605
9.3702
9.49774
9.6288
9.76353
9.90206
10.0446
10.1913
10.3424
10.498
10.6583
10.8237
10.9942
11.1701
11.3518
11.5395
11.7334
11.934
12.1416
12.3564
12.5791
12.8098
13.0492
13.2976
13.5556
13.8234
14.1007
7.13136
7.20638
7.28225
7.35943
7.43815
7.51852
7.60063
7.68455
7.77037
7.85815
7.94795
8.03982
8.13386
8.23013
8.32872
8.4297
8.53316
8.6392
8.74792
8.85941
8.97376
9.09109
9.21153
9.33521
9.46227
9.59285
9.72707
9.86509
10.0071
10.1532
10.3037
10.4588
10.6185
10.7832
10.9531
11.1284
11.3094
11.4964
11.6896
11.8895
12.0962
12.3103
12.5321
12.762
13.0004
13.2479
13.505
13.7725
14.0524
7.10062
7.17252
7.24683
7.32312
7.40121
7.48107
7.56271
7.64617
7.73154
7.81887
7.90821
7.99962
8.09318
8.18896
8.28705
8.38753
8.49047
8.59598
8.70416
8.81509
8.92887
9.04561
9.16545
9.28851
9.41494
9.54486
9.67841
9.81574
9.95702
10.1024
10.2522
10.4065
10.5654
10.7293
10.8983
11.0728
11.2528
11.4389
11.6312
11.83
12.0357
12.2487
12.4694
12.6981
12.9354
13.1816
13.4371
13.7022
13.9758
7.06768
7.14243
7.21775
7.29426
7.37225
7.45186
7.53319
7.61634
7.70137
7.78836
7.87734
7.96839
8.06158
8.157
8.25471
8.35479
8.45734
8.56244
8.67019
8.78069
8.89403
9.01032
9.12968
9.25227
9.3782
9.50762
9.64065
9.77744
9.91817
10.063
10.2122
10.3659
10.5242
10.6874
10.8558
11.0296
11.209
11.3943
11.5858
11.7839
11.9888
12.201
12.4208
12.6487
12.8851
13.1304
13.3851
13.6503
13.9284
7.02221
7.09266
7.16582
7.24107
7.31818
7.39706
7.47774
7.56027
7.64467
7.73102
7.81935
7.90973
8.00225
8.09697
8.19397
8.29332
8.39512
8.49945
8.60642
8.7161
8.82861
8.94404
9.06254
9.18422
9.30923
9.43769
9.56974
9.70553
9.84523
9.98903
10.1371
10.2896
10.4468
10.6089
10.776
10.9485
11.1265
11.3105
11.5006
11.6973
11.9007
12.1114
12.3296
12.5559
12.7905
13.034
13.2868
13.5487
13.8181
6.99179
7.06606
7.14066
7.21637
7.29351
7.37227
7.45276
7.53505
7.6192
7.70528
7.79334
7.88345
7.97568
8.0701
8.16679
8.26582
8.36728
8.47128
8.5779
8.68723
8.79936
8.91442
9.03252
9.1538
9.2784
9.40644
9.53805
9.67339
9.81263
9.95595
10.1035
10.2556
10.4122
10.5737
10.7403
10.9122
11.0897
11.2731
11.4626
11.6586
11.8614
12.0714
12.289
12.5146
12.7486
12.9915
13.2438
13.5066
13.7827
6.92509
6.99388
7.06573
7.13984
7.21588
7.29374
7.37338
7.45482
7.53811
7.62332
7.71048
7.79966
7.89093
7.98437
8.08004
8.17804
8.27844
8.38134
8.48683
8.595
8.70595
8.81979
8.93664
9.05664
9.17991
9.30659
9.43681
9.57072
9.70848
9.85028
9.99629
10.1467
10.3017
10.4615
10.6263
10.7964
10.972
11.1534
11.341
11.5349
11.7356
11.9434
12.1587
12.382
12.6137
12.8541
13.1038
13.3626
13.6281
6.90291
6.97668
7.05074
7.12584
7.20232
7.28034
7.36002
7.44143
7.52467
7.6098
7.69686
7.78592
7.87705
7.97035
8.06588
8.16371
8.26395
8.36668
8.47199
8.57998
8.69074
8.80438
8.92103
9.04082
9.16388
9.29034
9.42033
9.554
9.69152
9.83307
9.97884
10.129
10.2837
10.4432
10.6078
10.7776
10.9529
11.134
11.3212
11.5148
11.7151
11.9226
12.1376
12.3606
12.592
12.8324
13.0825
13.3436
13.619
6.80548
6.87499
6.94676
7.02038
7.09567
7.17259
7.25118
7.33148
7.41357
7.4975
7.58332
7.67109
7.76091
7.85285
7.94699
8.0434
8.14216
8.24338
8.34715
8.45355
8.56268
8.67465
8.78958
8.9076
9.02885
9.15345
9.28153
9.41323
9.54872
9.68818
9.8318
9.97974
10.1322
10.2893
10.4514
10.6187
10.7915
10.9699
11.1543
11.3451
11.5425
11.7469
11.9588
12.1785
12.4066
12.6436
12.89
13.1463
13.4114
6.80034
6.87186
6.94472
7.01896
7.09461
7.17175
7.25047
7.33087
7.41302
7.49698
7.58281
7.67061
7.76044
7.85238
7.94652
8.04293
8.14169
8.2429
8.34667
8.45306
8.56219
8.67415
8.78907
8.90709
9.02833
9.15292
9.28099
9.41268
9.54816
9.68762
9.83122
9.97915
10.1316
10.2887
10.4508
10.6181
10.7908
10.9692
11.1536
11.3444
11.5417
11.7461
11.958
12.1776
12.4057
12.6427
12.8893
13.1468
13.4168
6.67488
6.74795
6.82076
6.8942
6.96873
7.04461
7.12198
7.20096
7.28164
7.36411
7.44842
7.53465
7.62289
7.7132
7.80567
7.90036
7.99736
8.09678
8.1987
8.30321
8.4104
8.52037
8.63326
8.74918
8.86827
8.99065
9.11645
9.2458
9.37888
9.51586
9.65691
9.80222
9.95194
10.1063
10.2655
10.4298
10.5994
10.7747
10.9558
11.1431
11.337
11.5377
11.7457
11.9614
12.1852
12.4177
12.6595
12.912
13.1781
6.67916
6.74547
6.81505
6.8869
6.96059
7.03597
7.11301
7.19174
7.27223
7.35452
7.43868
7.52477
7.61286
7.70303
7.79535
7.8899
7.98677
8.08605
8.18783
8.2922
8.39924
8.50906
8.6218
8.73756
8.85649
8.97871
9.10433
9.23351
9.36641
9.5032
9.64407
9.78917
9.9387
10.0928
10.2518
10.4159
10.5853
10.7603
10.9412
11.1282
11.3218
11.5221
11.7297
11.945
12.1682
12.3998
12.64
12.8885
13.1417
6.55929
6.63029
6.70096
6.7724
6.84505
6.91915
6.99482
7.07214
7.15119
7.23204
7.31474
7.39934
7.48593
7.57456
7.66532
7.75828
7.85352
7.95114
8.05121
8.15383
8.25907
8.36706
8.47791
8.59174
8.70868
8.82885
8.95238
9.0794
9.21008
9.34459
9.4831
9.62578
9.7728
9.92437
10.0807
10.242
10.4086
10.5807
10.7585
10.9424
11.1326
11.3296
11.5337
11.7451
11.9644
12.1919
12.4281
12.6739
12.9332
6.53207
6.59595
6.66324
6.73288
6.80442
6.8777
6.95267
7.02937
7.10784
7.18812
7.27025
7.35429
7.4403
7.52836
7.61855
7.71093
7.80557
7.90258
8.00203
8.10401
8.20861
8.31593
8.4261
8.53923
8.65545
8.77489
8.89765
9.0239
9.15377
9.28746
9.42512
9.56692
9.71305
9.86369
10.0191
10.1794
10.3449
10.5159
10.6927
10.8754
11.0645
11.2602
11.463
11.6731
11.8909
12.1167
12.3507
12.5924
12.8384
6.43262
6.50215
6.57118
6.64089
6.71179
6.78414
6.85807
6.93367
7.01101
7.09014
7.17111
7.25396
7.33877
7.42562
7.51456
7.60566
7.699
7.79467
7.89275
7.99333
8.0965
8.20235
8.31101
8.4226
8.53723
8.65503
8.77612
8.90063
9.02873
9.16059
9.29637
9.43623
9.58036
9.72894
9.88218
10.0403
10.2036
10.3723
10.5466
10.7268
10.9133
11.1064
11.3063
11.5136
11.7284
11.9513
12.1826
12.4235
12.6783
6.36458
6.42608
6.49112
6.55858
6.62797
6.69912
6.77198
6.84655
6.92287
7.00097
7.0809
7.16269
7.24643
7.33217
7.41998
7.50993
7.60209
7.69655
7.7934
7.89271
7.99457
8.09909
8.20638
8.31655
8.42974
8.54606
8.66562
8.78856
8.91505
9.04524
9.17931
9.31741
9.45972
9.60643
9.75774
9.91389
10.0751
10.2416
10.4138
10.5917
10.7759
10.9665
11.1641
11.3688
11.581
11.8012
12.0294
12.2652
12.5046
6.29581
6.3637
6.43104
6.49909
6.56836
6.63909
6.7114
6.78536
6.86103
6.93845
7.01768
7.09876
7.18176
7.26675
7.35378
7.44292
7.53426
7.62788
7.72386
7.82229
7.92324
8.02682
8.13315
8.24234
8.35452
8.46979
8.58829
8.71013
8.83549
8.96452
9.09739
9.23426
9.37529
9.52069
9.67065
9.82541
9.98519
10.1502
10.3208
10.4972
10.6798
10.8688
11.0646
11.2676
11.4782
11.6969
11.9242
12.1612
12.4124
6.17603
6.23492
6.29772
6.36313
6.43054
6.49971
6.57053
6.64301
6.71716
6.79302
6.87064
6.95006
7.03135
7.11457
7.19979
7.28708
7.37651
7.46817
7.56215
7.65851
7.75735
7.85877
7.96287
8.06977
8.1796
8.29246
8.40847
8.52777
8.6505
8.77682
8.90691
9.04091
9.17899
9.32134
9.46817
9.61968
9.77611
9.93772
10.1047
10.2775
10.4562
10.6413
10.8331
11.032
11.2384
11.4528
11.6756
11.9064
12.1411
6.14587
6.21226
6.27872
6.34594
6.41426
6.48387
6.5549
6.62744
6.70157
6.77737
6.85488
6.93417
7.0153
7.09836
7.1834
7.2705
7.35974
7.4512
7.54496
7.64111
7.73973
7.84091
7.94478
8.05144
8.16101
8.27362
8.38936
8.50839
8.63084
8.75688
8.88667
9.02036
9.15813
9.30016
9.44665
9.59782
9.7539
9.91513
10.0818
10.2541
10.4325
10.6172
10.8086
11.0071
11.2133
11.4276
11.6512
11.8859
12.1375
5.96088
6.02582
6.09084
6.1565
6.22312
6.29092
6.36002
6.43054
6.50257
6.57618
6.65144
6.72841
6.80716
6.88777
6.9703
7.05483
7.14142
7.23017
7.32116
7.41446
7.51015
7.60833
7.70912
7.81262
7.91894
8.0282
8.14052
8.25601
8.37482
8.49712
8.62306
8.75279
8.88647
9.02428
9.16642
9.31311
9.46456
9.62101
9.78272
9.94995
10.123
10.3022
10.4879
10.6805
10.8805
11.0883
11.3046
11.5303
11.7666
5.968
6.0281
6.09091
6.15558
6.22176
6.28935
6.35836
6.42883
6.50083
6.57443
6.64967
6.72661
6.80535
6.88594
6.96845
7.05296
7.13953
7.22826
7.31922
7.41249
7.50816
7.60632
7.70707
7.81054
7.91684
8.02607
8.13835
8.25381
8.37259
8.49486
8.62076
8.75046
8.8841
9.02188
9.16398
9.31062
9.46203
9.61844
9.7801
9.94728
10.1203
10.2994
10.485
10.6774
10.877
11.0842
11.2994
11.5223
11.7507
5.78444
5.84868
5.91199
5.97562
6.04012
6.10576
6.1727
6.24106
6.3109
6.38229
6.4553
6.52997
6.60639
6.68461
6.7647
6.84673
6.93076
7.01689
7.10519
7.19574
7.2886
7.38389
7.4817
7.58214
7.68533
7.79136
7.90036
8.01244
8.12775
8.24644
8.36866
8.49456
8.6243
8.75804
8.89599
9.03834
9.18532
9.33716
9.49408
9.65635
9.82425
9.99809
10.1782
10.3648
10.5584
10.7592
10.9677
11.1847
11.4141
5.75563
5.81119
5.87026
5.9316
5.99469
6.05933
6.12546
6.19309
6.26226
6.33301
6.40539
6.47945
6.55524
6.63283
6.71228
6.79366
6.87703
6.96249
7.0501
7.13994
7.23208
7.32663
7.42368
7.52334
7.62572
7.73094
7.83909
7.9503
8.06471
8.18248
8.30375
8.42868
8.55741
8.69012
8.82699
8.96824
9.11408
9.26474
9.42044
9.58144
9.74803
9.9205
10.0991
10.2842
10.4761
10.675
10.8809
11.0929
11.3065
5.61687
5.67812
5.73858
5.79951
5.86145
5.92463
5.98919
6.05521
6.12275
6.19186
6.26256
6.33492
6.40899
6.48483
6.56249
6.64204
6.72355
6.80709
6.89274
6.98057
7.07066
7.16309
7.25797
7.35541
7.45551
7.55837
7.66411
7.77284
7.8847
7.99984
8.11841
8.24054
8.3664
8.49614
8.62997
8.76807
8.91065
9.05794
9.21017
9.36758
9.53046
9.69908
9.87374
10.0547
10.2424
10.437
10.6389
10.8491
11.0719
5.51993
5.5723
5.62817
5.68633
5.74629
5.80784
5.87091
5.9355
6.00162
6.06931
6.13858
6.20948
6.28206
6.35638
6.4325
6.51047
6.59036
6.67225
6.7562
6.84229
6.93059
7.02119
7.11419
7.2097
7.30781
7.40864
7.51228
7.61886
7.7285
7.84136
7.95758
8.07729
8.20066
8.32783
8.45901
8.59437
8.73413
8.87851
9.02773
9.18204
9.34171
9.50702
9.67829
9.85581
10.0399
10.2308
10.4287
10.6328
10.839
5.43877
5.49741
5.55539
5.61395
5.67359
5.73454
5.79689
5.8607
5.92601
5.99286
6.06127
6.13128
6.20296
6.27635
6.35152
6.42851
6.5074
6.58825
6.67115
6.75616
6.84335
6.9328
7.02463
7.11894
7.21582
7.31538
7.41771
7.52295
7.63121
7.74265
7.85741
7.97562
8.09743
8.223
8.35253
8.48619
8.62419
8.76676
8.91411
9.06649
9.22418
9.38746
9.55666
9.73211
9.91418
10.1033
10.3
10.5055
10.7243
5.26463
5.31368
5.36653
5.42187
5.47907
5.53787
5.59814
5.65985
5.723
5.78762
5.85374
5.92141
5.99066
6.06156
6.13417
6.20854
6.28474
6.36283
6.44289
6.52499
6.6092
6.6956
6.78429
6.87537
6.96894
7.06509
7.16393
7.26556
7.37012
7.47775
7.58857
7.70274
7.82038
7.94166
8.06676
8.19585
8.32913
8.46682
8.60914
8.75632
8.90863
9.06637
9.22986
9.39943
9.5755
9.75854
9.94895
10.1466
10.348
5.2464
5.30243
5.35901
5.41641
5.47481
5.53431
5.59501
5.65698
5.7203
5.78502
5.8512
5.9189
5.98817
6.05907
6.13167
6.20602
6.28219
6.36026
6.4403
6.52237
6.60655
6.69292
6.78157
6.87261
6.96614
7.06226
7.16105
7.26265
7.36717
7.47475
7.58553
7.69965
7.81725
7.93848
8.06352
8.19256
8.32579
8.46343
8.60569
8.75281
8.90507
9.06275
9.22618
9.39572
9.57182
9.7551
9.94658
10.1485
10.3675
4.98631
5.04445
5.10091
5.15701
5.21339
5.27053
5.32864
5.38785
5.4483
5.51003
5.57314
5.63766
5.70366
5.7712
5.84037
5.91122
5.98381
6.05818
6.13441
6.21257
6.29274
6.37501
6.45946
6.54619
6.63527
6.7268
6.82089
6.91766
7.01722
7.11971
7.22525
7.33396
7.44598
7.56145
7.68057
7.80349
7.93041
8.06149
8.19696
8.33707
8.48208
8.63223
8.78783
8.94919
9.11669
9.29076
9.47198
9.66122
9.86036
5.00048
5.04979
5.10211
5.15624
5.21174
5.26847
5.32635
5.38544
5.44581
5.50752
5.5706
5.63507
5.70102
5.76854
5.83771
5.90854
5.98108
6.0554
6.13158
6.20972
6.28987
6.37211
6.45653
6.5432
6.63224
6.72372
6.81778
6.91452
7.01406
7.1165
7.22197
7.33061
7.44257
7.55801
7.67707
7.79993
7.92676
8.05777
8.19319
8.33323
8.47813
8.62815
8.78357
8.94467
9.11171
9.28488
9.4641
9.64825
9.83208
4.78969
4.84257
4.89474
4.94726
5.00059
5.05489
5.11028
5.16688
5.22472
5.28385
5.34429
5.4061
5.46937
5.53416
5.6005
5.66842
5.73799
5.80928
5.88238
5.95735
6.03425
6.11314
6.19411
6.27725
6.36267
6.45045
6.5407
6.6335
6.72898
6.82724
6.92843
7.03267
7.14009
7.25083
7.36503
7.48288
7.60456
7.73025
7.86016
7.99449
8.13347
8.27735
8.42639
8.58082
8.74087
8.90675
9.07864
9.25717
9.44578
4.72355
4.7688
4.81699
4.86713
4.91875
4.97166
5.02587
5.08133
5.13806
5.19608
5.25544
5.3162
5.3784
5.44209
5.50728
5.57404
5.64244
5.71256
5.78445
5.85817
5.93378
6.01134
6.09095
6.17272
6.25673
6.34307
6.43181
6.52306
6.61693
6.71357
6.81307
6.91558
7.02121
7.1301
7.2424
7.35829
7.47794
7.60155
7.72929
7.86137
7.99804
8.13953
8.28607
8.43791
8.59527
8.75831
8.92702
9.10072
9.27572
4.58181
4.63142
4.68046
4.72997
4.78032
4.83174
4.88433
4.93811
4.99315
5.04947
5.10712
5.16613
5.22655
5.28839
5.35172
5.41658
5.48305
5.55119
5.62105
5.69267
5.76612
5.84149
5.91887
5.99834
6.07997
6.16385
6.25007
6.33874
6.42998
6.52389
6.62058
6.72018
6.82282
6.92863
7.03777
7.15039
7.26666
7.38677
7.51091
7.63928
7.7721
7.90962
8.05207
8.19971
8.3528
8.51163
8.67656
8.8485
9.0312
4.43112
4.47289
4.51753
4.56406
4.61207
4.66141
4.71198
4.76377
4.81681
4.87111
4.92671
4.98362
5.04186
5.10149
5.16257
5.22515
5.28928
5.355
5.42237
5.49144
5.5623
5.63501
5.70966
5.78632
5.86505
5.94596
6.02914
6.11468
6.20269
6.29328
6.38654
6.48262
6.58164
6.68371
6.78899
6.89762
7.00979
7.12566
7.24542
7.36927
7.49743
7.63013
7.76763
7.9102
8.05811
8.21166
8.37107
8.53603
8.70348
4.36253
4.40892
4.45523
4.50213
4.54998
4.59888
4.64889
4.70006
4.75244
4.80606
4.86094
4.91708
4.97454
5.03339
5.09368
5.15543
5.21869
5.28352
5.34999
5.41815
5.48808
5.55982
5.63346
5.70908
5.78676
5.8666
5.94867
6.03307
6.1199
6.20926
6.30129
6.39609
6.49378
6.59449
6.69836
6.80555
6.91623