/*--------------------------------*- C++ -*----------------------------------*\
  =========                 |
  \\      /  F ield         | OpenFOAM: The Open Source CFD Toolbox
   \\    /   O peration     | Website:  https://openfoam.org
    \\  /    A nd           | Version:  6
     \\/     M anipulation  |
\*---------------------------------------------------------------------------*/
FoamFile
{
    version     2.0;
    format      ascii;
    class       volScalarField;
    location    "120";
    object      gradTy;
}
// * * * * * * * * * * * * * * * * * * * * * * * * * * * * * * * * * * * * * //

dimensions      [0 -1 0 1 0 0 0];

internalField   nonuniform List<scalar> 
13524
(
5.98361
6.05335
6.12104
6.18838
6.2561
6.32466
6.39439
6.46544
6.53796
6.61205
6.68777
6.7652
6.8444
6.92545
7.00844
7.09346
7.18056
7.26981
7.36129
7.45509
7.55131
7.65002
7.75136
7.85542
7.96233
8.07217
8.18509
8.3012
8.42066
8.54364
8.67027
8.80073
8.93516
9.07373
9.21665
9.36415
9.51645
9.67377
9.83635
10.0045
10.1785
10.3587
10.5454
10.739
10.94
11.1489
11.3663
11.5934
11.8324
6.00058
6.05972
6.12252
6.18753
6.2541
6.32215
6.39161
6.46253
6.53498
6.609
6.68468
6.76207
6.84123
6.92225
7.00521
7.09019
7.17726
7.26647
7.3579
7.45165
7.54781
7.64649
7.74778
7.8518
7.95865
8.06844
8.1813
8.29736
8.41678
8.53971
8.66631
8.7967
8.93105
9.06955
9.21242
9.35987
9.51209
9.6693
9.83178
9.99982
10.1737
10.3538
10.5403
10.7336
10.934
11.1418
11.3569
11.5779
11.7985
5.7476
5.81107
5.87371
5.93672
6.00068
6.06586
6.13234
6.20023
6.26961
6.34057
6.41314
6.48732
6.56322
6.64093
6.72054
6.80208
6.88558
6.97113
7.05884
7.14879
7.24106
7.33573
7.43291
7.5327
7.63519
7.74052
7.8488
7.96017
8.07475
8.19269
8.31411
8.43918
8.56807
8.70097
8.83803
8.97947
9.12548
9.27629
9.43218
9.59338
9.76017
9.93282
10.1117
10.297
10.489
10.6881
10.8944
11.1086
11.335
5.66827
5.72258
5.78041
5.84055
5.90252
5.96603
6.03105
6.09759
6.16568
6.23534
6.30659
6.37946
6.45407
6.5305
6.60876
6.6889
6.77097
6.85509
6.94135
7.02982
7.12055
7.21364
7.30919
7.4073
7.50809
7.61167
7.71817
7.82768
7.94034
8.0563
8.1757
8.2987
8.42546
8.55614
8.6909
8.82997
8.97354
9.12186
9.27516
9.43367
9.59766
9.76743
9.94329
10.1255
10.3143
10.51
10.7124
10.9209
11.1309
5.49819
5.55774
5.61657
5.67597
5.7364
5.79808
5.86118
5.92574
5.9918
6.05938
6.12854
6.19934
6.27184
6.34607
6.42208
6.49991
6.57966
6.66142
6.74525
6.83122
6.91938
7.00982
7.10265
7.198
7.29597
7.39664
7.50012
7.60653
7.716
7.82868
7.94472
8.06425
8.18743
8.3144
8.44536
8.5805
8.72003
8.86417
9.01313
9.16717
9.32655
9.49157
9.66251
9.83968
10.0234
10.214
10.4119
10.6182
10.8375
5.31733
5.36746
5.421
5.47685
5.53446
5.59366
5.65436
5.71652
5.78016
5.84532
5.91202
5.98031
6.05023
6.12181
6.19511
6.27019
6.34713
6.42601
6.50687
6.58978
6.6748
6.76205
6.85162
6.94361
7.03811
7.13521
7.23501
7.33766
7.44327
7.55198
7.66391
7.77921
7.89802
8.02051
8.14685
8.27722
8.41182
8.55087
8.69458
8.84319
8.99698
9.15621
9.3212
9.49228
9.66977
9.85402
10.0453
10.2433
10.4442
5.23505
5.29069
5.34627
5.40258
5.45998
5.51867
5.57869
5.6401
5.70295
5.76728
5.83313
5.90052
5.96949
6.0401
6.11242
6.18652
6.26245
6.34027
6.42003
6.50181
6.5857
6.6718
6.76018
6.85094
6.94416
7.03996
7.13844
7.23972
7.34393
7.45117
7.5616
7.67536
7.79259
7.91345
8.0381
8.16672
8.29953
8.43673
8.57854
8.72519
8.87695
9.03412
9.197
9.36595
9.54136
9.72375
9.91387
10.1132
10.3269
4.94919
4.99831
5.0495
5.10228
5.15649
5.21202
5.26883
5.32695
5.38641
5.44726
5.50952
5.5732
5.63836
5.70508
5.77342
5.84343
5.91514
5.98862
6.06396
6.14122
6.22048
6.3018
6.38527
6.47098
6.55903
6.64952
6.74255
6.83821
6.93663
7.03792
7.14223
7.24968
7.36042
7.47457
7.5923
7.71379
7.83924
7.96884
8.10279
8.24132
8.38469
8.53316
8.68705
8.8467
9.01249
9.1849
9.36444
9.55144
9.74413
4.94022
4.9912
5.04365
5.09734
5.15217
5.20809
5.26519
5.32351
5.38311
5.44403
5.50631
5.56999
5.63517
5.7019
5.77023
5.84019
5.91185
5.9853
6.06061
6.13785
6.21706
6.29832
6.38174
6.46742
6.55543
6.64588
6.73885
6.83446
6.93282
7.03406
7.13831
7.24571
7.35638
7.47046
7.58813
7.70956
7.83495
7.96448
8.09835
8.2368
8.38008
8.52846
8.68223
8.84172
9.00732
9.17953
9.35906
9.54732
9.7479
4.59461
4.64785
4.69961
4.75115
4.80305
4.85566
4.90918
4.96373
5.01942
5.07629
5.13441
5.19384
5.25465
5.31689
5.38061
5.44585
5.51269
5.5812
5.65144
5.72345
5.79731
5.87309
5.95088
6.03078
6.11285
6.19719
6.28388
6.37304
6.46476
6.55916
6.65637
6.75652
6.85971
6.9661
7.07582
7.18906
7.30598
7.42675
7.55158
7.68067
7.81425
7.95257
8.09587
8.24443
8.39855
8.55855
8.72478
8.89778
9.07878
4.58069
4.62642
4.67464
4.72438
4.77531
4.82732
4.88038
4.93455
4.98988
5.0464
5.10418
5.16327
5.22372
5.28558
5.34892
5.41378
5.48023
5.54833
5.61814
5.68972
5.76315
5.83849
5.91583
5.99525
6.07683
6.16067
6.24686
6.33549
6.42667
6.52052
6.61716
6.71671
6.81931
6.92507
7.03415
7.14671
7.26294
7.383
7.5071
7.63542
7.76818
7.90563
8.048
8.19552
8.34842
8.50684
8.67068
8.83898
9.00744
4.30907
4.35632
4.4032
4.45046
4.49846
4.54735
4.59722
4.64815
4.70017
4.75336
4.80774
4.86336
4.92027
4.97852
5.03816
5.09925
5.16183
5.22596
5.29171
5.35914
5.4283
5.49927
5.57211
5.64692
5.72376
5.80273
5.88392
5.9674
6.05328
6.14167
6.2327
6.32647
6.42311
6.52273
6.62547
6.7315
6.84098
6.95407
7.07096
7.19182
7.31686
7.4463
7.58036
7.71925
7.86315
8.01225
8.16674
8.32714
8.4963
4.19816
4.23908
4.28229
4.32705
4.37307
4.4202
4.46842
4.51773
4.56818
4.61978
4.67257
4.72658
4.78184
4.83842
4.89637
4.95573
5.01653
5.07885
5.14275
5.20828
5.27549
5.34445
5.41524
5.48794
5.56262
5.63937
5.71826
5.79939
5.88286
5.96877
6.05724
6.14837
6.24229
6.3391
6.43896
6.54201
6.64842
6.75833
6.87193
6.9894
7.11094
7.23675
7.36706
7.50206
7.64197
7.78694
7.93701
8.09178
8.24861
4.01079
4.05383
4.09665
4.13997
4.18407
4.22908
4.2751
4.32216
4.37033
4.41962
4.47005
4.52165
4.57448
4.62858
4.68399
4.74075
4.79891
4.85852
4.91964
4.98232
5.04661
5.11258
5.1803
5.24984
5.32129
5.39471
5.47018
5.54779
5.62763
5.70982
5.79445
5.88163
5.97147
6.06409
6.15962
6.25821
6.36
6.46516
6.57385
6.68624
6.80253
6.92294
7.04767
7.17694
7.31099
7.45007
7.59451
7.74507
7.90464
3.80586
3.84262
3.88136
3.92151
3.9628
4.00516
4.04856
4.09302
4.13854
4.18514
4.23283
4.28166
4.33166
4.38287
4.43532
4.48906
4.54412
4.60056
4.65844
4.71779
4.77867
4.84113
4.90525
4.9711
5.03875
5.10827
5.17973
5.25322
5.32883
5.40665
5.48679
5.56934
5.65441
5.74212
5.83258
5.92594
6.02234
6.12193
6.22486
6.33132
6.44148
6.55556
6.67377
6.79634
6.92353
7.05558
7.1927
7.33475
7.4797
3.6999
3.73885
3.7778
3.81731
3.85765
3.8989
3.94114
3.98439
4.02867
4.074
4.12041
4.16794
4.2166
4.26645
4.3175
4.3698
4.4234
4.47833
4.53467
4.59244
4.65169
4.7125
4.77492
4.83902
4.90487
4.97255
5.04211
5.11365
5.18725
5.26301
5.34102
5.42139
5.50421
5.58959
5.67766
5.76854
5.86239
5.95934
6.05956
6.16322
6.27049
6.38161
6.49678
6.61626
6.74033
6.86935
7.00377
7.14444
7.29396
3.406
3.43846
3.47277
3.50845
3.54525
3.58307
3.62186
3.66159
3.70229
3.74396
3.78663
3.83031
3.87504
3.92085
3.96777
4.01584
4.0651
4.11559
4.16736
4.22046
4.27492
4.3308
4.38816
4.44707
4.50759
4.56979
4.63372
4.69947
4.76711
4.83673
4.90843
4.98229
5.05841
5.13688
5.21782
5.30135
5.38761
5.47672
5.56884
5.66412
5.76274
5.8649
5.97082
6.08074
6.19495
6.31379
6.43766
6.56678
6.70001
3.37487
3.40938
3.44469
3.48084
3.51783
3.55567
3.59436
3.63395
3.67445
3.7159
3.75832
3.80173
3.84616
3.89166
3.93825
3.98598
4.03488
4.08501
4.1364
4.18911
4.24317
4.29863
4.35557
4.41404
4.47411
4.53584
4.5993
4.66456
4.7317
4.80081
4.87198
4.94529
5.02085
5.09874
5.17908
5.262
5.34761
5.43607
5.5275
5.62208
5.71997
5.82137
5.92651
6.03561
6.14899
6.26702
6.39031
6.52006
6.65975
3.00129
3.03417
3.06687
3.09984
3.13328
3.16731
3.20201
3.23745
3.27366
3.31068
3.34853
3.38725
3.42687
3.46744
3.50898
3.55152
3.5951
3.63977
3.68557
3.73253
3.7807
3.83013
3.88086
3.93296
3.98649
4.0415
4.09804
4.15618
4.21601
4.27758
4.34099
4.40632
4.47364
4.54304
4.61463
4.6885
4.76479
4.8436
4.92506
5.00932
5.09653
5.18685
5.28049
5.37762
5.47848
5.58333
5.69243
5.80595
5.92334
3.00187
3.03275
3.06475
3.09754
3.13102
3.16514
3.19996
3.23549
3.27178
3.30886
3.34676
3.38551
3.42515
3.46573
3.50728
3.54982
3.5934
3.63806
3.68385
3.73081
3.77896
3.82836
3.87908
3.93116
3.98467
4.03965
4.09617
4.15429
4.21408
4.27563
4.33901
4.4043
4.47159
4.54095
4.6125
4.68634
4.76258
4.84134
4.92275
5.00695
5.09407
5.1843
5.27779
5.37472
5.47528
5.57964
5.68793
5.80014
5.91584
2.64161
2.67109
2.70031
2.7297
2.75946
2.7897
2.82049
2.85188
2.88393
2.91666
2.95011
2.98431
3.01928
3.05508
3.09172
3.12923
3.16766
3.20705
3.24742
3.28881
3.33127
3.37482
3.41953
3.46545
3.51262
3.56109
3.61091
3.66215
3.71486
3.76911
3.82499
3.88254
3.94185
4.00299
4.06606
4.13115
4.19835
4.26776
4.33951
4.4137
4.49047
4.56994
4.65226
4.73757
4.82598
4.91763
5.01259
5.11097
5.21331
2.59999
2.62668
2.65433
2.68271
2.7117
2.74129
2.77149
2.80232
2.8338
2.86596
2.89883
2.93244
2.96682
3.002
3.03801
3.07488
3.11265
3.15136
3.19103
3.23171
3.27343
3.31624
3.36018
3.4053
3.45165
3.49928
3.54824
3.59859
3.65038
3.7037
3.7586
3.81516
3.87343
3.93351
3.99548
4.05943
4.12545
4.19365
4.26413
4.33701
4.41241
4.49046
4.57129
4.65501
4.74176
4.83161
4.92456
5.02033
5.1176
2.2953
2.31985
2.3446
2.36973
2.39532
2.42142
2.44805
2.47525
2.50304
2.53143
2.56047
2.59015
2.62052
2.65159
2.6834
2.71597
2.74933
2.78352
2.81857
2.85451
2.89136
2.92917
2.96799
3.00784
3.04878
3.09086
3.13411
3.17858
3.22433
3.27142
3.31992
3.36987
3.42134
3.47441
3.52914
3.58561
3.64392
3.70415
3.7664
3.83075
3.89733
3.96624
4.03759
4.1115
4.18807
4.26741
4.34965
4.43506
4.52475
2.19365
2.2159
2.23893
2.26261
2.28685
2.31165
2.33699
2.36289
2.38936
2.41644
2.44412
2.47244
2.50141
2.53106
2.56142
2.5925
2.62435
2.65698
2.69043
2.72474
2.75992
2.79601
2.83306
2.8711
2.91018
2.95034
2.99163
3.03408
3.07775
3.1227
3.16898
3.21666
3.2658
3.31645
3.36869
3.4226
3.47825
3.53574
3.59515
3.65658
3.72012
3.7859
3.85401
3.92456
3.99768
4.07349
4.15206
4.23339
4.31688
1.93767
1.95799
1.97858
1.99955
2.02096
2.04283
2.06517
2.08802
2.11138
2.13528
2.15972
2.18472
2.2103
2.23649
2.2633
2.29077
2.3189
2.34773
2.37729
2.4076
2.43868
2.47057
2.5033
2.53692
2.57145
2.60694
2.64341
2.68092
2.71951
2.75923
2.80013
2.84226
2.88567
2.93043
2.97659
3.02422
3.0734
3.1242
3.17669
3.23097
3.28712
3.34525
3.40544
3.46782
3.53249
3.59959
3.66929
3.74189
3.81831
1.78741
1.80556
1.82427
1.84346
1.86309
1.88318
1.90372
1.92474
1.94624
1.96824
1.99074
2.01376
2.03733
2.06145
2.08616
2.11146
2.13738
2.16395
2.1912
2.21913
2.24777
2.27717
2.30734
2.33832
2.37015
2.40286
2.43648
2.47105
2.50662
2.54323
2.58093
2.61976
2.65978
2.70103
2.74358
2.78748
2.83281
2.87964
2.92803
2.97806
3.02983
3.08343
3.13895
3.19649
3.25618
3.31813
3.38247
3.44927
3.51817
1.56912
1.58534
1.60186
1.61872
1.63594
1.65355
1.67157
1.68999
1.70885
1.72813
1.74787
1.76806
1.78874
1.80991
1.83159
1.85379
1.87655
1.89987
1.92378
1.9483
1.97345
1.99925
2.02574
2.05294
2.08089
2.1096
2.13912
2.16948
2.2007
2.23285
2.26595
2.30004
2.33517
2.37139
2.40875
2.4473
2.4871
2.52822
2.57071
2.61465
2.66012
2.7072
2.75598
2.80656
2.85905
2.91356
2.97026
3.02938
3.0916
1.38297
1.3971
1.41156
1.42636
1.4415
1.45699
1.47284
1.48904
1.50563
1.5226
1.53997
1.55774
1.57595
1.59458
1.61367
1.63323
1.65327
1.67381
1.69487
1.71647
1.73862
1.76135
1.78469
1.80865
1.83327
1.85857
1.88457
1.91132
1.93883
1.96715
1.99631
2.02635
2.0573
2.08922
2.12213
2.1561
2.19117
2.2274
2.26485
2.30358
2.34366
2.38517
2.42818
2.4728
2.5191
2.56721
2.61724
2.66925
2.72306
1.19034
1.20248
1.2149
1.22763
1.24064
1.25395
1.26757
1.2815
1.29575
1.31034
1.32527
1.34056
1.35621
1.37223
1.38865
1.40547
1.42271
1.44038
1.45849
1.47708
1.49614
1.51569
1.53577
1.55639
1.57757
1.59934
1.62172
1.64474
1.66841
1.69279
1.71788
1.74374
1.77038
1.79784
1.82617
1.85541
1.88559
1.91678
1.94902
1.98236
2.01687
2.05261
2.08967
2.1281
2.16802
2.2095
2.25269
2.29774
2.34507
0.981775
0.991879
1.00217
1.01267
1.0234
1.03436
1.04557
1.05704
1.06879
1.08081
1.09312
1.10571
1.11861
1.13182
1.14535
1.15922
1.17342
1.18799
1.20293
1.21825
1.23397
1.25009
1.26665
1.28365
1.30112
1.31908
1.33754
1.35652
1.37605
1.39615
1.41685
1.43817
1.46014
1.4828
1.50617
1.53028
1.55519
1.58091
1.60751
1.63502
1.6635
1.69301
1.7236
1.75534
1.78831
1.82259
1.85826
1.89538
1.93386
0.802119
0.810164
0.81847
0.826989
0.835716
0.844644
0.85378
0.863137
0.872719
0.882527
0.892564
0.902842
0.913367
0.924149
0.935194
0.94651
0.958108
0.969998
0.982191
0.994697
1.00753
1.02069
1.0342
1.04809
1.06235
1.07701
1.09207
1.10757
1.12351
1.13992
1.15682
1.17423
1.19217
1.21067
1.22975
1.24944
1.26978
1.29079
1.31251
1.33499
1.35825
1.38236
1.40736
1.4333
1.46026
1.48831
1.51752
1.54802
1.58005
0.58508
0.591157
0.59728
0.603502
0.609856
0.616355
0.623015
0.629836
0.636818
0.643963
0.65128
0.658774
0.666451
0.674315
0.68237
0.690624
0.699084
0.707758
0.716653
0.725775
0.735133
0.744736
0.754595
0.764721
0.775124
0.785816
0.796808
0.808111
0.819741
0.831713
0.844042
0.856743
0.869833
0.883329
0.89725
0.911619
0.926459
0.941793
0.957649
0.974053
0.991039
1.00864
1.0269
1.04586
1.06556
1.08607
1.10744
1.12973
1.15289
0.405391
0.409231
0.413285
0.417505
0.421859
0.426337
0.430935
0.435643
0.440463
0.4454
0.45046
0.455643
0.460952
0.46639
0.471961
0.477671
0.483524
0.489523
0.495675
0.501985
0.508457
0.515099
0.521918
0.528921
0.536115
0.543509
0.551109
0.558925
0.566968
0.575247
0.583773
0.592556
0.601609
0.610943
0.620571
0.630511
0.640776
0.651384
0.662354
0.673703
0.685456
0.697636
0.710271
0.723393
0.737038
0.75125
0.766091
0.78167
0.79823
0.193985
0.195999
0.19801
0.200061
0.20216
0.204313
0.206512
0.20876
0.211065
0.21343
0.215854
0.218335
0.220877
0.223481
0.226151
0.228887
0.231692
0.234567
0.237516
0.24054
0.243642
0.246825
0.250093
0.253449
0.256896
0.260438
0.26408
0.267825
0.271677
0.275643
0.279728
0.283936
0.288274
0.292746
0.297361
0.302124
0.307044
0.312128
0.317386
0.322827
0.328462
0.334302
0.340362
0.346656
0.353203
0.360024
0.36715
0.374609
0.382396
-4.34447e-06
-8.70276e-06
-4.0136e-06
9.98855e-07
7.56906e-06
1.02101e-05
5.58429e-06
2.14462e-06
2.92268e-06
4.9952e-06
5.35401e-06
3.84573e-06
2.3633e-06
2.27644e-06
3.27709e-06
4.28459e-06
4.89536e-06
5.52822e-06
6.6088e-06
8.14314e-06
9.72869e-06
1.08914e-05
1.13978e-05
1.13646e-05
1.09729e-05
1.03091e-05
9.39779e-06
8.22442e-06
6.83065e-06
5.40841e-06
4.14133e-06
3.28015e-06
2.88209e-06
2.75883e-06
2.98118e-06
3.39822e-06
3.97714e-06
4.81643e-06
5.72805e-06
6.56489e-06
7.35152e-06
8.3049e-06
8.8921e-06
8.79653e-06
8.86648e-06
8.04897e-06
9.55122e-06
6.86154e-06
5.17701e-06
-0.193987
-0.196003
-0.198012
-0.200058
-0.202151
-0.204301
-0.206502
-0.208752
-0.211056
-0.213419
-0.215842
-0.218324
-0.220866
-0.22347
-0.226138
-0.228873
-0.231677
-0.234551
-0.237498
-0.240521
-0.243622
-0.246805
-0.250073
-0.25343
-0.256878
-0.260422
-0.264066
-0.267813
-0.271668
-0.275637
-0.279724
-0.283935
-0.288274
-0.292748
-0.297363
-0.302126
-0.307045
-0.312128
-0.317385
-0.322824
-0.328457
-0.334296
-0.340355
-0.346649
-0.353196
-0.360018
-0.367145
-0.374606
-0.382395
-0.405375
-0.409206
-0.413266
-0.417491
-0.421852
-0.426331
-0.43092
-0.435621
-0.44044
-0.445379
-0.450438
-0.455618
-0.460924
-0.46636
-0.471931
-0.47764
-0.483491
-0.48949
-0.495642
-0.501952
-0.508426
-0.515069
-0.52189
-0.528894
-0.53609
-0.543486
-0.551089
-0.558909
-0.566954
-0.575235
-0.583764
-0.59255
-0.601604
-0.610939
-0.620569
-0.630508
-0.640773
-0.651381
-0.662349
-0.673698
-0.68545
-0.69763
-0.710265
-0.723385
-0.73703
-0.751242
-0.766087
-0.781663
-0.798222
-0.585075
-0.591143
-0.597267
-0.603498
-0.609861
-0.616363
-0.623015
-0.629829
-0.636808
-0.643955
-0.651272
-0.658763
-0.666436
-0.674298
-0.682354
-0.690608
-0.699068
-0.707742
-0.716637
-0.72576
-0.73512
-0.744725
-0.754586
-0.764713
-0.775118
-0.785811
-0.796804
-0.808108
-0.819739
-0.831711
-0.844041
-0.856742
-0.869833
-0.883329
-0.897251
-0.911621
-0.926462
-0.941797
-0.957653
-0.974057
-0.991044
-1.00865
-1.0269
-1.04586
-1.06556
-1.08607
-1.10745
-1.12973
-1.15289
-0.802124
-0.810173
-0.818475
-0.826995
-0.835718
-0.844646
-0.853787
-0.863147
-0.872727
-0.882533
-0.89257
-0.902848
-0.913374
-0.924156
-0.935202
-0.946519
-0.958117
-0.970008
-0.982203
-0.99471
-1.00754
-1.0207
-1.03422
-1.0481
-1.06236
-1.07702
-1.09208
-1.10758
-1.12352
-1.13992
-1.15682
-1.17423
-1.19217
-1.21066
-1.22974
-1.24943
-1.26977
-1.29078
-1.31251
-1.33498
-1.35825
-1.38235
-1.40735
-1.4333
-1.46026
-1.4883
-1.51751
-1.54801
-1.58005
-0.981785
-0.991902
-1.00219
-1.01268
-1.0234
-1.03437
-1.04559
-1.05707
-1.06881
-1.08083
-1.09314
-1.10574
-1.11864
-1.13185
-1.14539
-1.15925
-1.17346
-1.18803
-1.20297
-1.21829
-1.23401
-1.25014
-1.26669
-1.28369
-1.30116
-1.31911
-1.33756
-1.35654
-1.37606
-1.39616
-1.41686
-1.43818
-1.46015
-1.4828
-1.50617
-1.53028
-1.55518
-1.58091
-1.60751
-1.63502
-1.66351
-1.69301
-1.7236
-1.75534
-1.78831
-1.82259
-1.85826
-1.89539
-1.93386
-1.19033
-1.20247
-1.2149
-1.22762
-1.24064
-1.25395
-1.26757
-1.2815
-1.29576
-1.31035
-1.32529
-1.34058
-1.35623
-1.37226
-1.38868
-1.4055
-1.42274
-1.44041
-1.45853
-1.47711
-1.49617
-1.51572
-1.5358
-1.55642
-1.5776
-1.59936
-1.62174
-1.64475
-1.66842
-1.69279
-1.71788
-1.74373
-1.77037
-1.79783
-1.82616
-1.8554
-1.88558
-1.91677
-1.94901
-1.98235
-2.01686
-2.05261
-2.08966
-2.1281
-2.16801
-2.2095
-2.25268
-2.29773
-2.34506
-1.38296
-1.39708
-1.41155
-1.42635
-1.4415
-1.45699
-1.47284
-1.48904
-1.50563
-1.5226
-1.53997
-1.55775
-1.57595
-1.59459
-1.61368
-1.63324
-1.65328
-1.67382
-1.69488
-1.71647
-1.73863
-1.76136
-1.78469
-1.80865
-1.83327
-1.85857
-1.88457
-1.91131
-1.93882
-1.96714
-1.9963
-2.02634
-2.05729
-2.0892
-2.12212
-2.15609
-2.19116
-2.22739
-2.26484
-2.30357
-2.34365
-2.38516
-2.42818
-2.47279
-2.5191
-2.56721
-2.61724
-2.66924
-2.72306
-1.56912
-1.58533
-1.60185
-1.61872
-1.63595
-1.65356
-1.67156
-1.68999
-1.70884
-1.72812
-1.74786
-1.76805
-1.78872
-1.80989
-1.83157
-1.85378
-1.87653
-1.89985
-1.92376
-1.94827
-1.97342
-1.99923
-2.02571
-2.05291
-2.08086
-2.10957
-2.13909
-2.16944
-2.20067
-2.23281
-2.26591
-2.30001
-2.33514
-2.37136
-2.40872
-2.44727
-2.48707
-2.52819
-2.57068
-2.61463
-2.6601
-2.70718
-2.75596
-2.80654
-2.85903
-2.91354
-2.97024
-3.02937
-3.09159
-1.78742
-1.80557
-1.82427
-1.84345
-1.86309
-1.88317
-1.90372
-1.92473
-1.94623
-1.96822
-1.99072
-2.01374
-2.03731
-2.06143
-2.08613
-2.11144
-2.13736
-2.16393
-2.19116
-2.21909
-2.24774
-2.27713
-2.3073
-2.33829
-2.37011
-2.40282
-2.43644
-2.47102
-2.50658
-2.5432
-2.58089
-2.61973
-2.65975
-2.701
-2.74355
-2.78745
-2.83278
-2.87961
-2.928
-2.97804
-3.02981
-3.0834
-3.13892
-3.19647
-3.25616
-3.31812
-3.38246
-3.44926
-3.51817
-1.93767
-1.95799
-1.97858
-1.99954
-2.02095
-2.04281
-2.06516
-2.088
-2.11136
-2.13525
-2.15969
-2.18469
-2.21027
-2.23646
-2.26327
-2.29073
-2.31887
-2.3477
-2.37725
-2.40756
-2.43864
-2.47053
-2.50326
-2.53688
-2.57141
-2.6069
-2.64338
-2.68089
-2.71948
-2.7592
-2.8001
-2.84223
-2.88564
-2.9304
-2.97656
-3.02419
-3.07337
-3.12417
-3.17666
-3.23094
-3.28709
-3.34522
-3.40541
-3.46779
-3.53247
-3.59957
-3.66927
-3.74187
-3.8183
-2.19364
-2.2159
-2.23893
-2.2626
-2.28685
-2.31164
-2.33698
-2.36288
-2.38936
-2.41643
-2.44411
-2.47243
-2.50139
-2.53104
-2.5614
-2.59248
-2.62433
-2.65696
-2.69041
-2.72471
-2.75989
-2.79598
-2.83303
-2.87108
-2.91016
-2.95032
-2.9916
-3.03405
-3.07773
-3.12268
-3.16897
-3.21665
-3.26579
-3.31644
-3.36868
-3.42259
-3.47824
-3.53573
-3.59515
-3.65657
-3.72012
-3.78589
-3.854
-3.92455
-3.99768
-4.07348
-4.15205
-4.23339
-4.31688
-2.29529
-2.31984
-2.34458
-2.36971
-2.39531
-2.42141
-2.44804
-2.47524
-2.50303
-2.53143
-2.56046
-2.59014
-2.6205
-2.65157
-2.68338
-2.71595
-2.74932
-2.78351
-2.81856
-2.85449
-2.89135
-2.92916
-2.96797
-3.00783
-3.04877
-3.09084
-3.13409
-3.17856
-3.22431
-3.27141
-3.3199
-3.36986
-3.42133
-3.4744
-3.52913
-3.58561
-3.64392
-3.70415
-3.7664
-3.83075
-3.89733
-3.96624
-4.03759
-4.11149
-4.18806
-4.2674
-4.34964
-4.43505
-4.52473
-2.6
-2.62667
-2.65432
-2.6827
-2.7117
-2.74129
-2.77149
-2.80231
-2.83379
-2.86596
-2.89883
-2.93244
-2.96681
-3.00199
-3.038
-3.07488
-3.11265
-3.15135
-3.19103
-3.23171
-3.27343
-3.31624
-3.36018
-3.4053
-3.45165
-3.49928
-3.54824
-3.59859
-3.65039
-3.7037
-3.75861
-3.81516
-3.87344
-3.93352
-3.99549
-4.05944
-4.12546
-4.19366
-4.26415
-4.33703
-4.41243
-4.49047
-4.5713
-4.65503
-4.74177
-4.83162
-4.92456
-5.02033
-5.1176
-2.64163
-2.6711
-2.70033
-2.72971
-2.75947
-2.7897
-2.82049
-2.85189
-2.88394
-2.91667
-2.95011
-2.98431
-3.01929
-3.05508
-3.09172
-3.12923
-3.16766
-3.20705
-3.24742
-3.28882
-3.33127
-3.37483
-3.41954
-3.46546
-3.51263
-3.5611
-3.61092
-3.66216
-3.71487
-3.76913
-3.825
-3.88256
-3.94187
-4.00301
-4.06608
-4.13116
-4.19836
-4.26778
-4.33953
-4.41372
-4.49048
-4.56996
-4.65228
-4.73758
-4.82599
-4.91763
-5.01259
-5.11096
-5.2133
-3.00187
-3.03276
-3.06476
-3.09755
-3.13102
-3.16515
-3.19997
-3.2355
-3.27179
-3.30887
-3.34677
-3.38552
-3.42517
-3.46575
-3.50729
-3.54984
-3.59342
-3.63809
-3.68388
-3.73083
-3.77899
-3.82839
-3.87911
-3.93119
-3.9847
-4.03968
-4.0962
-4.15432
-4.21412
-4.27567
-4.33905
-4.40434
-4.47162
-4.54099
-4.61254
-4.68637
-4.76261
-4.84137
-4.92278
-5.00697
-5.0941
-5.18432
-5.27781
-5.37474
-5.4753
-5.57965
-5.68794
-5.80015
-5.91584
-3.00128
-3.03416
-3.06687
-3.09984
-3.13328
-3.16731
-3.20202
-3.23745
-3.27366
-3.31068
-3.34854
-3.38726
-3.42689
-3.46746
-3.50899
-3.55154
-3.59512
-3.6398
-3.6856
-3.73257
-3.78074
-3.83017
-3.8809
-3.93301
-3.98653
-4.04154
-4.09808
-4.15623
-4.21605
-4.27763
-4.34104
-4.40636
-4.47368
-4.54308
-4.61466
-4.68853
-4.76481
-4.84362
-4.92509
-5.00934
-5.09655
-5.18687
-5.2805
-5.37763
-5.47849
-5.58334
-5.69244
-5.80595
-5.92334
-3.37487
-3.40937
-3.44469
-3.48084
-3.51783
-3.55567
-3.59437
-3.63396
-3.67447
-3.71592
-3.75834
-3.80174
-3.84618
-3.89167
-3.93827
-3.98599
-4.0349
-4.08503
-4.13642
-4.18912
-4.24318
-4.29865
-4.35559
-4.41406
-4.47414
-4.53587
-4.59933
-4.66459
-4.73173
-4.80083
-4.872
-4.94531
-5.02086
-5.09875
-5.17909
-5.262
-5.34761
-5.43606
-5.5275
-5.62207
-5.71996
-5.82136
-5.9265
-6.0356
-6.14898
-6.26702
-6.3903
-6.52005
-6.65975
-3.406
-3.43846
-3.47277
-3.50845
-3.54526
-3.58307
-3.62186
-3.66159
-3.7023
-3.74397
-3.78664
-3.83032
-3.87505
-3.92086
-3.96778
-4.01585
-4.06511
-4.1156
-4.16737
-4.22046
-4.27492
-4.3308
-4.38816
-4.44706
-4.50758
-4.56978
-4.63371
-4.69945
-4.76709
-4.83672
-4.90841
-4.98227
-5.05839
-5.13685
-5.21779
-5.30132
-5.38758
-5.47669
-5.5688
-5.66408
-5.7627
-5.86487
-5.97079
-6.08071
-6.19493
-6.31378
-6.43765
-6.56678
-6.70001
-3.6999
-3.73885
-3.7778
-3.81731
-3.85765
-3.8989
-3.94113
-3.98437
-4.02865
-4.07398
-4.1204
-4.16792
-4.21658
-4.26642
-4.31747
-4.36977
-4.42336
-4.4783
-4.53463
-4.59239
-4.65165
-4.71245
-4.77486
-4.83896
-4.90481
-4.97249
-5.04205
-5.11359
-5.18719
-5.26294
-5.34096
-5.42132
-5.50414
-5.58952
-5.67759
-5.76847
-5.86232
-5.95927
-6.05949
-6.16315
-6.27043
-6.38154
-6.49672
-6.61621
-6.7403
-6.86932
-7.00375
-7.14443
-7.29395
-3.80585
-3.84261
-3.88135
-3.92149
-3.96279
-4.00515
-4.04856
-4.093
-4.13852
-4.18511
-4.23281
-4.28164
-4.33164
-4.38284
-4.43529
-4.48902
-4.54408
-4.60052
-4.65838
-4.71773
-4.7786
-4.84106
-4.90518
-4.97102
-5.03867
-5.10819
-5.17965
-5.25314
-5.32874
-5.40657
-5.48671
-5.56927
-5.65434
-5.74205
-5.83251
-5.92587
-6.02227
-6.12186
-6.22479
-6.33125
-6.44141
-6.55549
-6.67371
-6.79629
-6.92348
-7.05555
-7.19268
-7.33473
-7.47969
-4.0108
-4.05383
-4.09665
-4.13996
-4.18406
-4.22908
-4.2751
-4.32216
-4.37032
-4.4196
-4.47003
-4.52164
-4.57447
-4.62857
-4.68398
-4.74073
-4.79889
-4.8585
-4.91962
-4.98229
-5.04658
-5.11254
-5.18026
-5.2498
-5.32124
-5.39465
-5.47012
-5.54773
-5.62757
-5.70976
-5.79439
-5.88157
-5.97141
-6.06403
-6.15957
-6.25816
-6.35995
-6.46511
-6.57379
-6.68619
-6.80248
-6.92289
-7.04762
-7.1769
-7.31095
-7.45004
-7.59449
-7.74505
-7.90462
-4.19816
-4.23908
-4.28229
-4.32706
-4.37307
-4.4202
-4.46842
-4.51774
-4.56818
-4.61978
-4.67257
-4.72657
-4.78184
-4.83842
-4.89637
-4.95571
-5.01652
-5.07885
-5.14274
-5.20827
-5.27547
-5.34443
-5.41522
-5.48791
-5.5626
-5.63934
-5.71823
-5.79936
-5.88282
-5.96873
-6.0572
-6.14834
-6.24225
-6.33907
-6.43893
-6.54198
-6.64838
-6.75829
-6.87189
-6.98936
-7.11089
-7.23671
-7.36701
-7.50202
-7.64193
-7.7869
-7.93698
-8.09175
-8.24859
-4.30908
-4.35632
-4.40319
-4.45045
-4.49845
-4.54734
-4.59722
-4.64814
-4.70018
-4.75337
-4.80775
-4.86337
-4.92028
-4.97853
-5.03818
-5.09926
-5.16184
-5.22598
-5.29174
-5.35917
-5.42832
-5.49928
-5.57212
-5.64692
-5.72377
-5.80274
-5.88392
-5.96739
-6.05328
-6.14167
-6.23271
-6.32648
-6.42311
-6.52273
-6.62548
-6.73151
-6.84099
-6.95408
-7.07097
-7.19182
-7.31686
-7.4463
-7.58036
-7.71924
-7.86314
-8.01224
-8.16673
-8.32713
-8.4963
-4.58071
-4.62644
-4.67464
-4.72439
-4.77531
-4.82731
-4.88038
-4.93455
-4.98987
-5.0464
-5.10418
-5.16326
-5.22371
-5.28557
-5.34891
-5.41377
-5.48023
-5.54833
-5.61814
-5.68973
-5.76316
-5.8385
-5.91583
-5.99525
-6.07684
-6.16068
-6.24686
-6.33549
-6.42667
-6.52052
-6.61716
-6.71672
-6.81931
-6.92507
-7.03415
-7.14672
-7.26295
-7.38302
-7.50711
-7.63542
-7.76819
-7.90563
-8.048
-8.19552
-8.34841
-8.50682
-8.67065
-8.83895
-9.00741
-4.59461
-4.64787
-4.69963
-4.75116
-4.80307
-4.85568
-4.90919
-4.96374
-5.01942
-5.0763
-5.13443
-5.19387
-5.25467
-5.31691
-5.38062
-5.44587
-5.51271
-5.58122
-5.65145
-5.72347
-5.79734
-5.87312
-5.95091
-6.0308
-6.11288
-6.19722
-6.28391
-6.37306
-6.46478
-6.55918
-6.6564
-6.75654
-6.85974
-6.96613
-7.07586
-7.1891
-7.30601
-7.42679
-7.55163
-7.68071
-7.81429
-7.95259
-8.09589
-8.24445
-8.39856
-8.55856
-8.72478
-8.89777
-9.07876
-4.94022
-4.99119
-5.04367
-5.09736
-5.15217
-5.20811
-5.26521
-5.32352
-5.38311
-5.44402
-5.50631
-5.57001
-5.63519
-5.70192
-5.77023
-5.8402
-5.91188
-5.98534
-6.06066
-6.13788
-6.2171
-6.29837
-6.38179
-6.46747
-6.55548
-6.64593
-6.7389
-6.83451
-6.93287
-7.03411
-7.13836
-7.24576
-7.35642
-7.47051
-7.58819
-7.70962
-7.83501
-7.96453
-8.09841
-8.23686
-8.38013
-8.5285
-8.68227
-8.84175
-9.00734
-9.17954
-9.35907
-9.54731
-9.74788
-4.9492
-4.9983
-5.04948
-5.10229
-5.1565
-5.21202
-5.26884
-5.32697
-5.38643
-5.44727
-5.50951
-5.57319
-5.63837
-5.7051
-5.77344
-5.84343
-5.91514
-5.98864
-6.06399
-6.14126
-6.22051
-6.30183
-6.3853
-6.47102
-6.55909
-6.64958
-6.7426
-6.83826
-6.93667
-7.03797
-7.14228
-7.24974
-7.36046
-7.47461
-7.59235
-7.71386
-7.83931
-7.9689
-8.10286
-8.24138
-8.38474
-8.53321
-8.6871
-8.84673
-9.01251
-9.1849
-9.36444
-9.55144
-9.74412
-5.23505
-5.29071
-5.34626
-5.40257
-5.45998
-5.51866
-5.57868
-5.6401
-5.70295
-5.76728
-5.83311
-5.90049
-5.96947
-6.0401
-6.11243
-6.18651
-6.26243
-6.34024
-6.42001
-6.50182
-6.58572
-6.67181
-6.76018
-6.85094
-6.94417
-7.03998
-7.13846
-7.23974
-7.34393
-7.45117
-7.5616
-7.67537
-7.79259
-7.91344
-8.03809
-8.16672
-8.29954
-8.43674
-8.57855
-8.72521
-8.87697
-9.03414
-9.19702
-9.36596
-9.54136
-9.72375
-9.91385
-10.1132
-10.3269
-5.31735
-5.36748
-5.42103
-5.47687
-5.53449
-5.59368
-5.65437
-5.71653
-5.78018
-5.84535
-5.91205
-5.98032
-6.05021
-6.12179
-6.19509
-6.27018
-6.34712
-6.42598
-6.50683
-6.58974
-6.67478
-6.76204
-6.8516
-6.94358
-7.03808
-7.13518
-7.235
-7.33764
-7.44324
-7.55193
-7.66386
-7.77916
-7.89797
-8.02046
-8.14679
-8.27716
-8.41176
-8.55081
-8.69453
-8.84315
-8.99694
-9.15618
-9.32118
-9.49224
-9.66973
-9.85399
-10.0453
-10.2432
-10.4442
-5.49818
-5.55772
-5.61659
-5.67597
-5.7364
-5.79811
-5.8612
-5.92575
-5.9918
-6.05939
-6.12857
-6.19936
-6.27184
-6.34604
-6.42204
-6.49989
-6.57965
-6.6614
-6.74522
-6.83117
-6.91933
-7.00978
-7.10263
-7.19798
-7.29594
-7.3966
-7.50007
-7.60647
-7.71594
-7.82862
-7.94465
-8.06417
-8.18733
-8.3143
-8.44526
-8.5804
-8.71993
-8.86408
-9.01305
-9.1671
-9.32649
-9.49151
-9.66245
-9.83962
-10.0233
-10.2139
-10.4118
-10.6182
-10.8374
-5.66826
-5.72256
-5.78041
-5.84057
-5.90251
-5.96603
-6.03106
-6.0976
-6.16567
-6.23531
-6.30656
-6.37947
-6.45408
-6.53048
-6.6087
-6.68883
-6.77092
-6.85505
-6.94131
-7.02977
-7.12049
-7.21357
-7.30912
-7.40724
-7.50805
-7.61164
-7.71812
-7.82762
-7.94027
-8.05622
-8.17562
-8.29862
-8.42536
-8.55602
-8.69079
-8.82986
-8.97344
-9.12177
-9.27507
-9.43359
-9.59759
-9.76738
-9.94324
-10.1254
-10.3143
-10.5099
-10.7124
-10.9208
-11.1308
-5.7476
-5.81106
-5.87369
-5.93672
-6.0007
-6.06587
-6.13236
-6.20026
-6.26965
-6.34059
-6.41313
-6.48733
-6.56325
-6.64096
-6.72054
-6.80203
-6.88552
-6.97109
-7.05882
-7.14877
-7.24103
-7.33569
-7.43286
-7.53265
-7.63516
-7.7405
-7.84879
-7.96014
-8.07469
-8.19261
-8.31403
-8.43911
-8.568
-8.70087
-8.83792
-8.97935
-9.12537
-9.27621
-9.4321
-9.59331
-9.7601
-9.93277
-10.1116
-10.2969
-10.489
-10.688
-10.8943
-11.1085
-11.3349
-6.00059
-6.05974
-6.12251
-6.1875
-6.25411
-6.32217
-6.39164
-6.46257
-6.53501
-6.60904
-6.68471
-6.76209
-6.84126
-6.92229
-7.00525
-7.09021
-7.17725
-7.26644
-7.35789
-7.45165
-7.54783
-7.6465
-7.74779
-7.8518
-7.95866
-8.06846
-8.18134
-8.2974
-8.41681
-8.53972
-8.66629
-8.79667
-8.93102
-9.06952
-9.21238
-9.3598
-9.512
-9.66924
-9.83175
-9.9998
-10.1737
-10.3537
-10.5402
-10.7336
-10.934
-11.1418
-11.3568
-11.5778
-11.7984
-5.9836
-6.05335
-6.12107
-6.18837
-6.25608
-6.32467
-6.3944
-6.46547
-6.53799
-6.61208
-6.68779
-6.76522
-6.84442
-6.92549
-7.00849
-7.09348
-7.18055
-7.26979
-7.36128
-7.45509
-7.55131
-7.65003
-7.75136
-7.85543
-7.96233
-8.07219
-8.18511
-8.30123
-8.4207
-8.54366
-8.67029
-8.80073
-8.93514
-9.07371
-9.21663
-9.36412
-9.51641
-9.67372
-9.83632
-10.0045
-10.1785
-10.3587
-10.5454
-10.739
-10.94
-11.1489
-11.3663
-11.5934
-11.8323
6.29566
6.36292
6.43083
6.49972
6.56977
6.64115
6.71398
6.78834
6.86433
6.94201
7.02143
7.10266
7.18579
7.27087
7.35798
7.44721
7.53863
7.63232
7.72837
7.82684
7.92785
8.03149
8.13787
8.24712
8.35936
8.47468
8.59324
8.71515
8.84058
8.96967
9.1026
9.23955
9.38067
9.52616
9.67622
9.83108
9.99097
10.1561
10.3268
10.5034
10.6861
10.8753
11.0714
11.2748
11.4862
11.7061
11.9359
12.1783
12.4411
6.31753
6.3764
6.43983
6.50624
6.57489
6.64545
6.71776
6.79179
6.86756