/*--------------------------------*- C++ -*----------------------------------*\
  =========                 |
  \\      /  F ield         | OpenFOAM: The Open Source CFD Toolbox
   \\    /   O peration     | Website:  https://openfoam.org
    \\  /    A nd           | Version:  6
     \\/     M anipulation  |
\*---------------------------------------------------------------------------*/
FoamFile
{
    version     2.0;
    format      ascii;
    class       volScalarField;
    location    "30";
    object      gradTz;
}
// * * * * * * * * * * * * * * * * * * * * * * * * * * * * * * * * * * * * * //

dimensions      [0 -1 0 1 0 0 0];

internalField   nonuniform List<scalar> 
13524
(
0
-3.48969e-17
0
4.20401e-17
0
-1.36537e-16
-4.36333e-16
3.58214e-16
-5.81748e-16
8.82305e-16
-8.21521e-16
-6.60759e-16
1.22231e-15
-7.36989e-16
-1.29019e-15
-2.9264e-16
9.57118e-16
-2.67356e-16
-5.75804e-16
-3.09241e-16
0
1.10026e-15
-6.79167e-16
-1.97405e-15
-8.56486e-16
-4.54855e-16
-2.93779e-15
1.48976e-15
5.41033e-16
0
-6.04404e-16
-6.37997e-16
0
7.09653e-16
7.47759e-16
2.39075e-15
-1.6293e-15
1.77494e-15
-2.72241e-15
0
0
0
-1.12108e-15
7.07066e-20
0
7.14617e-20
0
1.43669e-15
1.55524e-15
9.79306e-17
1.28992e-16
-1.59595e-16
0
3.00263e-16
-1.11314e-16
5.18723e-16
-7.70543e-16
5.27515e-16
1.26033e-16
2.83402e-16
1.57897e-16
0
1.91929e-16
2.09797e-16
4.56677e-16
0
5.34748e-16
2.87926e-16
-6.54468e-16
1.62078e-15
1.80916e-15
-2.26911e-15
1.97447e-15
-8.97599e-16
1.77833e-15
4.82475e-16
-2.08941e-15
2.11951e-15
1.76355e-15
-2.39461e-15
2.55295e-15
-1.99425e-15
2.66582e-17
-2.99181e-15
-2.76423e-17
0
-3.51995e-15
1.80492e-15
0
-1.01475e-15
0
-4.99339e-20
-2.35637e-15
0
-1.30098e-15
0
-1.43669e-15
-1.62238e-20
8.63168e-17
-1.1046e-16
-2.95916e-17
0
-5.49963e-17
-1.36638e-16
-8.2058e-17
4.11878e-16
-5.62641e-17
-4.76452e-16
-1.41712e-16
-1.57892e-16
0
-1.91923e-16
0
-2.28348e-16
-2.47546e-16
-2.67383e-16
0
-3.09267e-16
-1.6935e-15
1.37995e-15
-3.78035e-16
-1.65051e-15
-9.37647e-16
2.23307e-15
0
-5.1123e-16
-5.41055e-16
5.72108e-16
-1.8375e-15
1.25162e-15
-6.98873e-16
3.54885e-15
-2.21644e-15
-8.15822e-16
-5.78766e-17
2.5876e-15
9.1772e-16
0
3.0776e-15
-2.09939e-15
3.39919e-15
-1.14173e-15
0
0
2.77598e-15
-2.83095e-15
4.575e-15
0
0
1.72276e-16
-1.44182e-16
5.50154e-17
-2.30867e-16
3.02465e-16
5.08409e-16
1.65594e-16
-4.76715e-16
1.41743e-16
0
1.74654e-16
0
-8.71181e-16
1.11013e-15
-7.76022e-16
1.30371e-15
0
0
3.31403e-16
0
3.78079e-16
-4.0274e-16
-1.32603e-15
2.23349e-15
-4.82548e-16
-1.01609e-20
0
5.72162e-16
-6.28803e-16
1.88996e-15
0
-7.09735e-16
-7.47841e-16
7.87602e-16
8.58432e-16
-1.71544e-15
-9.1779e-16
-2.92798e-15
5.07486e-15
-2.09966e-15
-3.39954e-15
3.49842e-15
1.23815e-15
0
1.36719e-15
1.43675e-15
-1.50997e-15
0
0
-2.96022e-17
1.93036e-16
-2.50113e-16
2.99e-16
-3.02268e-16
-5.08202e-16
3.05593e-16
5.32398e-16
-6.80219e-16
0
5.54018e-16
-7.37288e-16
0
-1.17419e-15
1.98075e-15
-1.30345e-15
-1.18674e-15
8.92567e-16
1.03082e-15
-1.73431e-15
1.17282e-15
-1.16898e-15
0
-2.31645e-15
2.37011e-15
5.11236e-16
0
-5.72139e-16
-6.04457e-16
-6.38109e-16
0
7.09706e-16
-1.52298e-15
7.59783e-16
2.51642e-15
-1.71523e-15
9.17754e-16
9.65149e-16
-1.01475e-15
0
3.39925e-15
-3.49813e-15
-1.2381e-15
1.34115e-15
-1.28461e-15
-4.26765e-15
1.50991e-15
0
0
1.42651e-16
-1.44161e-16
0
6.83184e-17
-3.54725e-16
3.58645e-16
-4.71353e-16
4.7668e-16
-5.95838e-16
6.02726e-16
1.74634e-16
0
0
0
-7.75994e-16
-3.34955e-16
2.18704e-16
2.3826e-16
1.28955e-15
2.16365e-15
-1.09627e-15
2.05354e-15
-1.24496e-15
0
0
5.11231e-16
5.41082e-16
-5.72136e-16
0
1.93941e-15
-6.48006e-16
-1.44609e-15
1.44136e-15
1.54752e-15
8.29082e-16
1.77522e-15
-1.80505e-15
9.65157e-16
1.01476e-15
0
2.27834e-15
-1.14193e-15
-2.51507e-15
3.86403e-15
0
-1.48029e-15
6.04112e-15
-5.71451e-18
1.74618e-17
-1.4244e-16
1.43947e-16
0
-1.36612e-16
8.20409e-17
0
0
-5.3229e-16
3.9668e-16
0
-2.72513e-20
0
-2.09805e-16
9.45704e-16
-1.81629e-16
-1.87201e-15
1.11733e-15
-1.27278e-15
2.58456e-16
2.48031e-15
-1.85201e-15
-4.02707e-16
1.32564e-15
-1.32328e-15
1.97309e-15
8.8047e-17
-2.66029e-15
2.31192e-15
-1.18501e-15
-6.38092e-16
6.98828e-16
-1.39325e-15
-3.73984e-20
0
-3.86018e-20
-8.72381e-16
0
-9.65134e-16
1.04812e-15
-3.20067e-15
1.08593e-15
-1.17819e-15
-2.51479e-15
2.56269e-15
2.77596e-15
-4.26762e-15
0
5.71464e-18
-1.56351e-21
1.42524e-16
-1.44032e-16
0
6.82967e-17
-8.20426e-17
-4.11901e-16
4.16503e-16
0
7.37322e-16
-6.02511e-16
-9.03238e-16
7.37254e-16
2.09809e-16
0
2.47498e-16
1.10357e-15
-2.5921e-15
1.20183e-15
-1.69353e-15
2.83479e-15
-3.02493e-15
1.57168e-15
0
1.40667e-15
-3.37831e-15
1.49e-15
-1.10499e-15
5.4902e-16
0
-6.38054e-16
0
0
-2.27077e-15
3.15077e-15
-2.45852e-15
1.82298e-20
0
9.65095e-16
-2.06294e-15
2.09944e-15
2.24216e-15
0
1.23806e-15
0
1.36711e-15
0
-2.26464e-17
0
-1.74606e-17
-1.42405e-16
3.36827e-16
-1.94978e-16
0
0
0
0
0
0
0
0
7.98398e-16
-8.0796e-16
-9.45619e-16
-3.13405e-16
-6.75546e-17
1.11727e-15
0
0
0
0
0
-1.75386e-15
-8.3289e-17
1.4049e-15
0
1.10489e-15
4.66512e-17
-1.18497e-15
1.93911e-15
-1.32092e-15
1.44583e-15
-2.99148e-15
1.54725e-15
-1.68724e-15
8.12574e-16
1.80477e-15
9.97384e-16
-1.99661e-15
-1.06664e-15
-1.12107e-15
0
-4.99085e-15
-7.94354e-17
1.3263e-15
0
-1.50994e-15
4.02631e-17
-6.39191e-17
-2.95807e-17
4.20816e-17
0
-6.82956e-17
-2.72317e-16
2.62039e-16
0
-1.26042e-16
1.41694e-16
-1.57873e-16
-1.74602e-16
7.98361e-16
-1.01773e-15
-1.17391e-15
7.09676e-16
0
-2.87934e-16
-3.09248e-16
3.31342e-16
-1.80882e-15
3.02446e-15
-3.23801e-16
5.09312e-16
-3.71572e-16
-2.8738e-15
2.55617e-15
-2.70543e-15
5.48896e-16
-6.04408e-16
-1.30102e-15
6.47765e-16
7.36137e-16
-7.208e-16
-2.39078e-15
1.62932e-15
-2.64728e-15
2.72243e-15
-9.65099e-16
-1.0147e-15
0
0
1.21534e-15
-2.43829e-15
0
0
1.45838e-15
-1.48784e-15
5.75377e-17
-1.22728e-16
1.53766e-16
-2.35212e-16
2.50195e-16
6.82962e-17
-1.64104e-16
6.04497e-16
-8.87864e-16
7.2869e-16
-1.41695e-16
3.15774e-16
9.03347e-16
-9.29299e-16
1.08084e-15
-6.53254e-16
1.27093e-15
-7.68737e-16
2.87936e-16
1.58224e-15
-1.95214e-15
3.54255e-16
3.78048e-16
2.05336e-15
-1.67311e-15
2.31653e-15
-1.8877e-15
-5.11191e-16
5.41042e-16
5.72095e-16
6.04413e-16
0
-2.58382e-17
2.10305e-15
-7.47768e-16
-8.15951e-16
1.62955e-15
1.74482e-15
9.49085e-16
3.15445e-17
1.01471e-15
0
1.12112e-15
1.17817e-15
3.75305e-15
-1.26186e-15
2.77616e-15
-4.28961e-15
1.48794e-15
-5.71879e-18
0
1.12888e-16
-1.43988e-16
-5.49977e-17
0
8.206e-17
-1.9252e-16
0
-1.26062e-16
0
-1.57894e-16
0
9.90471e-16
-1.88884e-15
8.8145e-16
0
-2.67385e-16
0
0
1.69351e-15
-1.02567e-15
-1.92886e-15
1.57164e-15
-4.28294e-16
0
0
-1.04461e-15
-4.53164e-17
-4.66495e-17
1.18503e-15
0
-6.73134e-16
0
0
1.60336e-15
-1.62943e-15
-8.72401e-16
-1.86666e-15
9.33457e-16
0
0
-1.12109e-15
-2.39359e-15
3.67642e-15
-1.30098e-15
0
-1.45838e-15
1.48785e-15
0
-1.74763e-17
1.42644e-16
-3.37341e-16
-5.00842e-17
3.16319e-16
2.72644e-16
-2.62373e-16
-1.10935e-16
-1.26083e-16
0
-1.57917e-16
0
0
-5.98449e-21
0
7.75971e-16
-1.30365e-15
-2.87983e-16
-1.5824e-15
1.28953e-15
-3.54296e-16
1.17304e-15
-1.97465e-15
-8.77148e-16
4.34332e-16
-1.46926e-15
4.89481e-16
0
-1.1679e-15
-4.80437e-17
1.25179e-15
-1.37218e-15
6.83736e-16
0
0
8.29093e-16
0
-2.78464e-15
3.86152e-15
-5.07474e-15
1.03289e-15
2.27832e-15
-4.71394e-15
3.71548e-15
-3.86399e-15
0
-1.43672e-15
2.26236e-17
0
3.49499e-17
0
4.21028e-17
0
-6.83266e-17
-1.90411e-16
7.70398e-16
-3.05595e-16
1.26079e-16
0
-5.03133e-16
1.39743e-15
-1.53587e-15
1.018e-15
0
4.95087e-16
2.67403e-16
1.4747e-15
3.80326e-16
-1.28931e-15
0
7.56104e-16
8.05424e-16
8.77022e-16
4.96541e-16
5.25334e-16
1.06648e-15
-1.60073e-15
0
6.0444e-16
-6.38091e-16
6.73148e-16
7.09694e-16
0
7.87551e-16
-8.29065e-16
8.72416e-16
9.1774e-16
0
2.02947e-15
-1.10131e-15
2.20705e-15
0
0
2.62207e-15
-1.34672e-15
2.89506e-15
2.20554e-17
-5.71916e-18
-1.74747e-17
-2.95951e-17
-4.05321e-21
-5.50029e-17
-3.67453e-16
2.20329e-16
0
5.82242e-16
-7.0178e-17
-6.80346e-16
5.0329e-16
-6.68927e-16
-1.91935e-16
0
-2.28361e-16
-4.95086e-16
0
-1.47486e-15
2.78436e-15
-1.62086e-15
0
-7.56109e-16
-4.02721e-16
-4.28309e-16
4.75969e-16
-1.4264e-15
-5.11234e-16
5.41085e-16
-5.72126e-16
-1.29858e-20
1.31731e-20
-1.34632e-15
-2.15573e-15
1.46881e-15
-1.57513e-15
8.58394e-16
-3.46022e-15
-2.78458e-15
1.89874e-15
1.0483e-15
6.85758e-17
-2.20721e-15
0
-1.2575e-15
-3.97092e-17
2.7349e-15
-1.41557e-15
-1.53257e-15
-4.60203e-17
-4.69996e-17
2.96133e-16
-1.8608e-16
1.09992e-16
1.24721e-20
0
5.08111e-16
-5.27389e-16
1.26068e-16
1.4172e-16
3.15782e-16
0
3.83844e-16
2.09813e-16
-4.89041e-16
1.20487e-15
2.6737e-16
2.87959e-16
1.27278e-15
-1.2892e-15
0
-1.9331e-17
7.85798e-16
-4.4868e-16
4.13241e-16
1.90872e-15
0
5.41037e-16
2.31191e-15
-3.6269e-15
1.88968e-15
1.34625e-15
7.09679e-16
-7.75167e-16
3.12235e-15
8.29049e-16
1.74479e-15
2.78436e-15
-2.89597e-15
1.99664e-15
-1.1013e-15
2.207e-15
1.17815e-15
0
1.30097e-15
-1.38798e-15
1.41546e-15
0
5.71735e-18
0
-2.95877e-17
-1.93084e-16
1.40158e-16
6.83068e-17
0
-9.62468e-17
0
0
0
5.03164e-16
-6.6878e-16
6.06674e-16
-1.47032e-16
-1.10984e-15
0
-2.67374e-16
0
-9.45701e-16
9.76007e-16
0
-3.78025e-16
0
8.77028e-16
-8.89125e-16
5.04114e-16
4.40404e-17
-1.60071e-15
-5.72099e-16
6.04417e-16
0
-6.73126e-16
0
-3.0058e-20
8.15869e-16
5.78779e-17
-8.12588e-16
-1.80488e-15
-9.6511e-16
1.01468e-15
-1.06665e-15
0
-1.17817e-15
-1.23804e-15
-2.60195e-15
-1.38804e-15
-2.11395e-17
0
5.70956e-18
0
0
1.92904e-16
-1.94967e-16
0
0
0
3.60107e-16
-4.76291e-16
5.9543e-16
-6.02314e-16
0
-7.98349e-16
1.6786e-15
-8.81247e-16
1.02307e-15
6.75516e-17
-1.11721e-15
6.3631e-16
3.64422e-17
-6.89865e-16
0
8.25141e-16
-8.36367e-16
9.30623e-16
-9.43639e-16
0
0
0
-6.04348e-16
0
0
0
-7.47736e-16
0
0
0
-1.86653e-15
1.89844e-15
-1.01467e-15
-1.08392e-15
2.22445e-15
0
1.23803e-15
1.30095e-15
0
1.43666e-15
0
-5.17184e-17
-4.69769e-17
9.44413e-17
1.92921e-16
-4.40026e-16
2.47691e-16
3.54381e-16
-3.58297e-16
1.10862e-16
0
5.95436e-16
-6.0232e-16
0
-6.06479e-16
8.07914e-16
-2.28296e-16
-5.11535e-16
5.17889e-16
0
0
0
0
7.75298e-16
-7.85705e-16
-4.48654e-16
8.88981e-16
0
-1.04449e-15
1.05952e-15
-1.16761e-15
1.78926e-15
0
1.37188e-15
-1.39315e-15
1.52282e-15
-2.36295e-15
3.31647e-15
-1.71506e-15
-9.33268e-16
9.49221e-16
1.03138e-15
-1.04963e-15
-1.121e-15
-1.19674e-15
1.21911e-15
0
0
1.43664e-15
0
-5.1754e-17
6.39758e-17
0
-2.35056e-16
1.95048e-16
0
-4.36476e-16
3.58367e-16
0
5.32255e-16
-5.38338e-16
-6.60894e-16
4.94046e-16
-1.91874e-16
4.35386e-16
4.88755e-16
-7.26098e-16
0
2.87902e-16
-3.09215e-16
3.31308e-16
0
-3.7798e-16
4.02639e-16
8.76932e-16
-8.89023e-16
1.46894e-15
-1.53388e-15
1.05956e-15
1.16766e-15
-5.80592e-16
-6.38015e-16
0
7.09611e-16
-7.47715e-16
1.60328e-15
-1.62935e-15
-8.72337e-16
9.17655e-16
9.65051e-16
1.0314e-15
1.69353e-17
2.26004e-15
1.81939e-17
-1.25738e-15
-1.34065e-15
2.71377e-15
-1.43664e-15
3.04245e-15
5.71319e-18
-8.72581e-18
-1.47904e-17
2.56048e-16
5.00616e-17
5.11515e-17
1.34301e-16
-3.10207e-16
0
-2.03088e-16
2.69147e-16
7.89319e-17
5.38802e-16
-7.67726e-16
5.08866e-16
-7.01092e-16
7.26068e-16
5.51676e-16
-9.90471e-16
9.45532e-16
-9.75835e-16
-7.27276e-16
1.11488e-15
-4.02633e-16
-4.28231e-16
7.03214e-16
-1.42608e-15
5.33356e-16
-1.05952e-15
1.16762e-15
-1.78927e-15
6.38006e-16
0
-7.096e-16
-7.75121e-16
7.59728e-16
0
1.32359e-15
-1.81999e-15
-9.65036e-16
-1.03137e-15
-1.69491e-17
-1.12101e-15
1.86446e-17
-3.09547e-15
3.90323e-15
-4.78519e-15
-4.29332e-17
-7.76996e-16
0
7.61031e-17
-9.45517e-17
-2.10408e-17
-2.74947e-17
-3.33164e-16
3.0228e-16
-5.08158e-16
3.61072e-16
-6.30178e-17
-7.08497e-17
-1.57872e-16
3.64315e-16
-2.72672e-16
7.02445e-21
4.72887e-16
-4.78689e-16
5.51771e-16
3.22556e-16
-4.46278e-16
0
0
1.89006e-16
8.25255e-16
-8.36482e-16
4.54846e-16
0
0
2.70515e-16
8.81693e-16
-1.18503e-15
0
3.36554e-16
0
-3.73876e-16
0
8.43654e-16
1.47666e-17
0
-9.81274e-16
4.90995e-16
1.08399e-15
3.55361e-17
-5.70885e-16
-1.93834e-17
1.28138e-15
-8.09643e-21
7.18331e-16
7.54949e-16
-2.85859e-18
8.73376e-18
-5.74875e-22
0
-1.22567e-16
1.58042e-16
0
4.81204e-17
-2.47016e-21
-6.30254e-17
7.08484e-17
-2.97778e-21
0
-1.91907e-16
3.3051e-16
-4.4069e-16
-5.11599e-16
3.84271e-16
-1.43964e-16
-1.5462e-16
0
-1.77125e-16
-3.78009e-16
-8.25204e-16
6.22297e-16
-2.27423e-16
0
1.04455e-15
-1.33009e-15
-1.16768e-15
2.41799e-15
-1.25156e-15
3.49423e-16
-1.05143e-15
3.73868e-16
0
0
-8.72363e-16
9.33296e-16
-9.4925e-16
1.53874e-15
-2.1336e-15
1.10348e-15
6.077e-16
-3.09552e-15
6.30849e-16
-1.38796e-15
6.97124e-16
2.28745e-15
-4.32174e-17
9.33407e-17
3.87958e-17
-7.20334e-17
1.50109e-16
-1.23939e-16
0
0
5.54533e-17
-2.03182e-16
2.69251e-16
7.89415e-17
-8.73083e-17
4.95258e-16
-4.04084e-16
0
0
6.8548e-16
-1.1521e-15
1.392e-15
-6.44657e-16
1.77127e-16
1.89009e-16
0
8.77021e-16
-8.89122e-16
-2.41242e-16
0
0
2.86043e-16
0
0
-6.86015e-16
3.28517e-16
7.34345e-16
0
0
4.36189e-16
0
0
1.03146e-15
-1.04971e-15
1.13907e-15
-1.15997e-15
0
6.50482e-16
-2.58704e-21
0
-7.54946e-16
2.30174e-17
-2.32559e-17
0
0
0
-1.49482e-16
1.51116e-16
2.05939e-16
2.7323e-17
-2.38225e-16
0
2.51549e-16
-6.11346e-16
2.7265e-16
4.35432e-16
-5.54879e-16
0
-1.33685e-16
0
-3.09252e-16
0
-1.77127e-16
0
-2.01338e-16
1.09111e-15
-1.11649e-15
-2.52032e-16
7.66961e-16
2.26577e-17
-5.60524e-16
-6.16518e-16
6.25789e-16
0
0
0
0
0
0
0
0
0
-1.08395e-15
-5.9606e-16
2.35669e-15
-2.47652e-15
6.30856e-16
6.83536e-16
7.2918e-16
-7.43911e-16
-2.30345e-17
2.32732e-17
0
9.65384e-17
-9.75709e-17
0
1.77291e-16
-1.7925e-16
0
-2.66204e-16
5.6708e-16
-2.22333e-16
0
-3.0334e-16
4.0408e-16
1.1417e-16
0
1.33686e-16
-5.93363e-16
7.55549e-16
6.81094e-16
-1.24027e-15
7.37032e-16
-2.11297e-16
4.18251e-16
2.27431e-16
0
-2.66718e-16
5.29827e-16
0
6.16546e-16
-6.25818e-16
0
0
0
0
0
8.87507e-16
-9.02424e-16
-9.81278e-16
9.98343e-16
-1.08399e-15
1.66405e-15
0
0
-1.00603e-17
6.73365e-16
0
0
0
8.73339e-18
0
0
2.74948e-17
0
0
1.57818e-16
-2.08241e-16
0
-2.97798e-16
3.01241e-16
8.73047e-17
0
0
-1.14167e-16
0
0
4.40628e-16
-3.00439e-16
5.06195e-16
1.87e-17
1.91987e-17
-1.00684e-15
8.56712e-16
-6.71959e-16
2.41236e-16
0
0
-2.86039e-16
6.16518e-16
2.47488e-17
-6.60469e-16
7.22923e-16
-1.49576e-15
-2.8019e-17
8.14688e-16
-8.87472e-16
9.02388e-16
0
0
0
-5.69508e-16
5.79958e-16
6.28687e-16
-6.40662e-16
0
-7.29178e-16
7.43909e-16
1.42923e-18
-4.36666e-18
7.39655e-18
-8.6005e-17
8.3812e-17
1.70761e-17
-2.05125e-17
2.40615e-17
0
0
-3.54254e-17
3.30511e-16
-8.2965e-16
1.68988e-16
2.54483e-16
-6.51929e-17
2.39345e-16
0
-7.19846e-17
0
-1.65671e-16
0
9.45031e-17
6.13962e-16
2.02581e-17
3.61962e-16
-1.32701e-15
5.0028e-16
1.35257e-16
-2.97821e-16
5.92511e-16
-1.59511e-16
1.68275e-16
7.22939e-16
-1.49579e-15
7.7365e-16
2.07252e-16
2.18091e-16
2.2942e-16
0
2.53669e-16
5.41986e-16
-5.51751e-16
0
9.38205e-16
-6.40673e-16
0
3.59157e-16
0
-2.85825e-18
-8.73307e-18
-5.72218e-22
-2.10434e-17
-2.74936e-17
1.32403e-16
-2.39739e-16
8.96072e-17
-9.00542e-17
-4.54828e-17
-1.42918e-17
2.7639e-16
-1.67173e-16
1.5165e-16
-4.19729e-16
1.63268e-16
-6.18753e-17
-6.68394e-17
-1.43964e-16
-7.73098e-17
8.28329e-17
4.5223e-16
-3.68489e-16
1.00665e-16
1.07065e-16
-5.7906e-16
7.13088e-16
6.50071e-16
-5.29796e-16
1.43017e-16
1.51096e-16
3.19018e-16
6.85971e-16
-8.80659e-16
5.54083e-16
0
-1.80056e-21
4.4373e-16
-9.17839e-16
7.1589e-16
-1.86081e-21
2.6665e-16
2.80257e-16
2.94527e-16
-3.09504e-16
3.2523e-16
-3.52211e-16
-2.14611e-17
7.43906e-16
-1.00833e-17
-7.38515e-18
1.62321e-17
1.05214e-17
7.50371e-17
-6.19533e-17
2.05114e-17
2.40597e-17
-1.17782e-16
1.50623e-16
2.19745e-16
1.46258e-17
-7.98765e-17
2.47604e-16
-2.54469e-16
5.70809e-17
3.79557e-16
-4.68018e-16
3.51324e-16
7.73099e-17
-7.34955e-22
-7.4966e-22
-9.45008e-17
-5.13275e-16
3.11159e-16
1.1371e-16
2.46632e-16
-1.16782e-16
-5.41126e-16
1.37243e-16
-8.49178e-22
-8.58635e-22
-5.1126e-16
3.48305e-16
-5.67656e-16
-1.40095e-17
2.00093e-16
-6.61822e-16
4.51191e-16
-2.41265e-16
-5.07329e-16
-8.47027e-22
-2.80258e-16
9.32699e-18
-2.90382e-16
-6.30605e-16
-3.21128e-16
-1.42603e-15
-3.77463e-16
-1.42891e-18
0
-7.39534e-18
-1.05206e-17
-1.37455e-17
0
-2.05101e-17
-2.40583e-17
-2.77242e-17
-3.15094e-17
-2.19736e-16
1.9008e-16
-2.69437e-16
1.84294e-16
0
-1.1416e-16
1.32051e-16
-5.3484e-16
5.04003e-16
-3.77735e-16
-8.28318e-17
-3.58948e-16
8.97418e-17
-2.063e-16
1.02045e-16
-2.27417e-16
-4.87854e-16
-1.38798e-16
-5.61052e-18
-1.43013e-16
-1.51094e-16
-3.19012e-16
-5.1125e-16
5.32347e-16
-1.73358e-16
-7.87625e-16
4.07335e-16
-2.18084e-16
-4.58827e-16
4.9061e-16
-4.99141e-16
8.67233e-18
-5.51731e-16
-2.99185e-16
6.14279e-16
-5.02598e-18
3.41893e-16
-3.53855e-16
7.54922e-16
7.14418e-19
0
3.69765e-18
1.05206e-17
6.81566e-17
-6.19464e-17
1.02551e-17
7.55387e-17
-6.5917e-17
4.72637e-17
3.5422e-17
-1.9733e-17
-4.7419e-17
6.81586e-17
0
-8.96693e-17
2.12468e-16
0
-1.12332e-16
2.97745e-17
2.89982e-16
-1.282e-16
2.41085e-16
-4.53066e-16
2.62635e-16
5.68541e-17
1.20612e-16
6.38945e-17
1.3525e-16
3.63419e-16
-3.71783e-16
7.97526e-17
4.27112e-16
-3.48295e-16
1.86928e-16
-2.00407e-16
3.10944e-16
-1.05344e-16
2.29412e-16
-1.2063e-16
-4.18542e-18
3.95732e-16
0
4.46446e-16
-1.50028e-16
0
-5.22531e-18
7.13003e-16
-5.66189e-16
7.14485e-19
0
1.84899e-18
0
3.43653e-18
3.73675e-17
-2.7521e-17
6.01421e-18
7.96774e-17
-7.53055e-17
-8.85508e-18
-6.28832e-17
7.26708e-17
-7.58209e-17
1.01003e-16
1.42699e-17
-3.0936e-17
-1.54637e-16
1.75653e-16
1.97743e-16
-1.19728e-16
2.21394e-17
1.44166e-16
-7.30529e-17
5.35304e-17
2.8427e-17
-1.23312e-16
2.20901e-16
0
-1.10202e-16
3.17681e-17
3.58945e-16
-8.09771e-17
4.435e-17
0
-2.00406e-16
3.07286e-16
-1.6734e-16
-7.72905e-18
2.97622e-16
-2.57845e-16
6.0005e-16
-2.058e-16
1.47261e-16
2.4199e-18
-2.41468e-16
-1.73492e-16
-9.51522e-17
4.69069e-16
1.78597e-19
5.84365e-18
4.84773e-18
-7.68318e-18
3.43608e-18
-2.08157e-17
-7.03764e-19
1.63838e-17
-3.63709e-17
-3.4927e-18
4.69286e-17
3.63725e-17
-7.64079e-17
4.60697e-17
0
-4.48322e-17
5.98266e-17
8.56699e-17
-6.98288e-17
3.97708e-17
4.4839e-17
-7.57269e-18
-3.42456e-17
1.25824e-17
-9.62299e-17
8.13855e-17
-1.77519e-17
-3.46985e-17
-2.83215e-18
-2.22629e-17
2.62945e-16
4.29687e-17
-1.68295e-16
4.27216e-17
9.51755e-17
-7.20905e-17
0
5.45196e-17
0
-6.23347e-17
-4.13808e-18
1.97861e-16
-1.41247e-16
7.24913e-17
-7.85827e-17
7.88231e-17
1.26884e-16
1.36038e-16
-4.43892e-17
-1.78598e-19
0
-9.2433e-19
-1.31496e-18
0
4.26814e-18
3.16241e-25
3.00707e-18
0
0
-4.42778e-18
2.87112e-22
0
5.99642e-18
-6.55616e-18
4.20258e-22
-7.73379e-18
8.35376e-18
-8.99649e-18
0
-1.03528e-17
-1.10699e-17
-2.36237e-17
2.5164e-17
7.98417e-22
0
1.50761e-17
9.96127e-22
1.69049e-17
-1.78762e-17
-1.88861e-17
0
6.54171e-22
-6.64313e-22
0
-2.46087e-17
7.76914e-22
0
-2.8676e-17
0
0
0
3.5031e-17
-1.14129e-21
1.16262e-21
0
-4.27193e-17
4.48933e-17
-9.43643e-17
0
6.93501e-18
-4.9805e-18
-1.4691e-17
1.21901e-17
-2.08158e-17
1.63223e-17
1.67167e-17
-4.85357e-17
4.38417e-18
3.36461e-17
4.93303e-18
4.55308e-17
-1.01967e-16
5.70543e-17
-1.42692e-17
-5.62115e-17
7.30939e-17
4.60757e-17
-3.7551e-17
9.54764e-17
-1.31691e-16
9.41201e-18
-6.66192e-17
1.45972e-16
-2.7136e-17
-1.23308e-16
1.90338e-16
-1.8599e-16
7.00603e-17
9.59454e-17
-1.19655e-16
1.68295e-16
9.36481e-17
-3.25472e-16
-3.50232e-18
2.07277e-16
-2.18118e-16
1.41468e-16
0
-6.55059e-17
6.34578e-17
3.39334e-17
1.49589e-16
-2.30968e-16
-2.48212e-18
1.69603e-16
9.11448e-17
-4.72193e-17
5.75539e-18
-6.90641e-18
0
2.67559e-17
-2.4384e-17
0
0
6.01421e-18
5.19554e-17
-6.7428e-17
0
0
0
9.98074e-17
-1.01003e-16
-1.03939e-16
1.19659e-16
-1.67087e-17
1.48321e-16
-1.5021e-16
0
9.09139e-17
-9.21181e-17
0
1.09616e-16
-1.39554e-16
-1.23312e-16
1.25061e-16
-1.04297e-16
-5.83098e-18
1.48118e-16
-3.98754e-17
-1.71488e-16
3.54871e-16
-1.36839e-16
2.00406e-16
-2.03665e-16
-2.21861e-16
2.25589e-16
2.45302e-16
-3.12983e-16
0
0
0
0
-2.51364e-18
-9.05979e-17
5.38794e-16
-9.16101e-17
1.151e-17
-3.50085e-17
2.36241e-17
1.05206e-17
1.37454e-17
7.47351e-17
-7.55518e-17
-5.14806e-17
5.20558e-17
6.6537e-17
-3.18754e-17
1.22083e-16
5.1133e-17
-9.21452e-17
0
0
0
1.37929e-16
8.65734e-18
-1.50211e-16
0
8.85571e-17
9.93386e-17
-2.971e-16
-1.07062e-16
0
0
0
1.3525e-16
-1.43013e-16
0
4.84761e-16
-3.30223e-16
0
0
-3.53907e-18
-3.57864e-18
0
2.29412e-16
0
0
2.70981e-16
8.88358e-18
9.21269e-18
-3.04777e-16
1.62613e-16
0
-1.74138e-16
1.99898e-16
0
-4.36637e-18
0
-1.05206e-17
-1.37455e-17
7.47373e-17
-7.55541e-17
0
0
-1.33077e-16
9.91761e-17
1.2577e-16
-2.10818e-16
1.9962e-16
-3.67547e-17
-4.56768e-16
2.39324e-16
0
0
0
0
-1.77116e-16
9.4498e-17
3.06962e-16
-1.02045e-16
0
-2.46628e-16
1.22335e-16
-1.35251e-16
1.43013e-16
3.08251e-16
-4.72391e-16
-3.42981e-16
3.48299e-16
-1.86931e-16
-1.96868e-16
6.29048e-16
-4.28776e-16
-4.58827e-16
4.9061e-16
-4.99143e-16
2.75318e-16
-8.3648e-16
2.89974e-16
0
-6.55482e-16
3.41892e-16
-3.53857e-16
6.21596e-22
1.00833e-17
-1.16316e-17
-7.39591e-18
-1.05214e-17
4.75443e-17
-7.90284e-17
6.81185e-17
-1.13669e-16
-2.77247e-17
-1.64595e-16
1.34605e-16
-3.94686e-17
-4.36506e-17
-4.79759e-17
-5.88816e-22
-2.93513e-16
1.77457e-16
-3.42712e-16
-8.92965e-17
2.23127e-16
3.40522e-16
-1.67853e-16
0
1.00665e-16
-1.07065e-16
1.13711e-16
1.26018e-16
-2.5569e-16
1.29644e-16
1.43017e-16
1.57161e-16
-1.53384e-16
1.74715e-16
-1.70899e-16
-8.8494e-22
1.96872e-16
-6.29059e-16
6.4687e-16
-8.98242e-22
7.31883e-16
-7.52815e-16
1.07527e-15
-5.51739e-16
2.94527e-16
0
3.25231e-16
-3.52215e-16
1.42603e-15
-7.60585e-16
1.42903e-18
8.73305e-18
-6.385e-17
1.79029e-16
-1.92621e-16
-2.55799e-17
1.71624e-16
-7.89074e-17
1.04117e-16
3.1511e-17
0
-1.25773e-16
3.92969e-16
6.33018e-17
-1.49566e-16
-1.30687e-21
-1.32053e-16
3.25822e-16
7.19815e-17
-1.40461e-21
-3.40519e-16
7.08642e-16
-2.73985e-16
-2.01332e-16
2.14131e-16
1.54374e-21
4.93262e-16
-1.05772e-16
-2.59285e-16
1.63911e-21
1.51096e-16
-1.59508e-16
1.68272e-16
-5.38864e-16
9.34804e-16
-3.86811e-16
4.14498e-16
-2.18087e-16
4.58835e-16
-4.90614e-16
7.52813e-16
-8.08621e-16
8.31996e-16
-2.94527e-16
0
-3.2523e-16
3.41764e-16
1.1678e-21
7.66244e-16
0
-4.36677e-18
-5.64707e-17
-2.45093e-17
1.11307e-16
1.70761e-17
4.10255e-17
0
2.7726e-17
6.30256e-17
-2.97817e-16
3.80201e-16
3.64316e-16
-7.30315e-17
-9.7125e-17
5.70833e-17
6.18782e-17
0
1.43968e-16
7.7312e-17
-1.74865e-16
-1.07262e-16
2.74001e-16
3.02004e-16
-5.45565e-16
-1.34534e-16
8.3373e-16
0
1.35258e-16
4.40842e-16
-5.92511e-16
3.19024e-16
0
0
0
-1.96876e-16
-1.05089e-15
8.57587e-16
2.29422e-16
-2.41269e-16
1.02305e-15
1.71435e-17
-2.71488e-16
5.98393e-16
-6.09578e-16
1.00575e-17
-1.01512e-15
-1.80666e-15
-1.10133e-17
-2.85871e-18
0
-1.4793e-17
0
-2.74948e-17
-3.41538e-17
-2.18284e-16
1.31093e-16
0
-6.30252e-17
2.97798e-16
-3.80181e-16
0
-4.95215e-16
1.94229e-16
0
-1.23755e-16
0
-1.43967e-16
1.63572e-16
-4.87974e-16
1.86549e-16
-3.68493e-16
2.11278e-16
-6.32363e-16
0
-2.41236e-16
0
-5.41028e-16
5.83847e-16
-5.92497e-16
-9.6956e-16
6.60469e-16
-3.54822e-16
0
-8.01653e-16
-2.89378e-17
8.5757e-16
-9.17682e-16
0
-5.07336e-16
0
-5.60521e-16
0
6.28687e-16
1.98524e-17
-6.73343e-16
-2.1693e-21
-1.13176e-17
2.85875e-18
0
-5.64794e-17
5.09821e-17
-1.50104e-16
1.58088e-16
-4.10272e-17
4.81245e-17
0
2.03177e-16
-3.401e-16
-3.30528e-16
-1.17247e-16
3.68645e-16
2.09817e-16
4.72907e-16
-9.9037e-16
5.18016e-16
0
1.54628e-16
8.46768e-16
3.74008e-17
-7.37032e-16
2.0134e-16
2.1414e-16
0
2.41241e-16
0
2.70519e-16
0
0
-3.19029e-16
6.8601e-16
3.81135e-16
-1.10822e-15
0
0
-4.3619e-16
4.58849e-16
4.82546e-16
5.07346e-16
1.61731e-15
-1.10352e-15
0
1.24773e-15
-6.50744e-16
1.35691e-15
-1.08757e-17
-2.23277e-17
-2.85885e-18
-4.67576e-17
1.76588e-17
-7.54631e-17
2.45986e-18
1.23902e-16
4.10268e-17
-2.54064e-16
2.0824e-16
3.29196e-16
-1.27505e-16
2.51549e-16
-1.59743e-16
-9.59575e-17
-1.04907e-16
0
5.11619e-16
-6.5166e-16
-1.4397e-16
0
3.49704e-16
-5.12825e-16
5.86374e-16
-9.87129e-16
-1.09111e-15
1.11649e-15
-4.82477e-16
-5.22286e-16
5.29801e-16
5.83848e-16
-2.78179e-16
-3.06764e-16
-3.36553e-16
0
-3.87577e-16
7.73635e-16
0
4.36185e-16
0
-9.65082e-16
5.24072e-16
-1.58298e-15
0
-5.89066e-16
6.38144e-22
-6.50473e-16
1.04435e-17
1.05954e-17
0
5.71751e-18
8.73406e-18
-5.64843e-17
9.30787e-17
0
0
0
4.81251e-17
0
0
-2.37384e-21
1.57886e-16
-8.73083e-17
9.59592e-17
0
4.72911e-16
1.56707e-16
1.67463e-16
1.78603e-16
-7.55552e-16
1.65676e-16
1.77127e-16
3.22645e-21
2.01338e-16
3.3268e-21
-2.27433e-16
2.41243e-16
1.04463e-15
-7.89146e-16
-2.86043e-16
1.22096e-15
-3.06795e-16
-3.49456e-16
1.05148e-15
7.61489e-16
-7.73673e-16
4.1451e-16
0
4.58848e-16
9.8129e-16
-4.91006e-16
0
1.13907e-15
-5.70891e-16
-1.87646e-15
3.90344e-15
-1.34675e-15
-7.18329e-16
0
-5.71721e-18
-8.73396e-18
-1.47932e-17
5.44101e-17
-2.20097e-16
2.73361e-16
-1.48829e-17
-2.27323e-16
0
0
-7.08513e-17
1.72595e-16
-3.34338e-16
-9.59522e-17
-4.35412e-16
9.13537e-16
-1.23775e-15
-1.67454e-16
5.58669e-16
-4.81752e-16
4.7892e-16
-3.54246e-16
1.89006e-16
-2.01336e-16
1.09108e-15
-8.89045e-16
0
-1.30014e-15
1.62345e-15
-8.34986e-16
-3.02198e-16
-9.69551e-16
3.23912e-16
-3.54821e-16
0
-3.93748e-16
-8.29006e-16
0
-9.1768e-16
4.8254e-16
-2.04608e-15
-3.42878e-17
5.42955e-16
-5.89062e-16
0
2.00906e-17
-2.03022e-15
-7.18317e-16
0
-4.32165e-17
-4.70167e-17
-3.32048e-17
1.651e-16
-2.45205e-16
5.46868e-16
9.33053e-17
-3.10357e-16
-2.35584e-16
2.38246e-16
-2.97817e-16
3.80199e-16
0
9.5954e-17
0
-4.72887e-16
9.08023e-17
6.51679e-16
-5.93343e-16
6.00902e-16
8.46744e-16
-5.12853e-16
0
-8.25255e-16
1.71348e-15
-8.89097e-16
0
2.5559e-16
2.70515e-16
-1.16773e-15
1.18503e-15
0
1.70856e-15
-1.39328e-15
0
3.93755e-16
-4.29145e-16
8.57599e-16
4.58847e-16
9.81274e-16
-4.90995e-16
0
5.60532e-16
-6.07738e-16
-3.82438e-17
1.93186e-15
1.38802e-15
-6.97169e-16
7.54949e-16
0
-1.74577e-17
0
-4.20709e-17
0
0
-8.20243e-17
-4.11762e-16
4.16363e-16
0
-4.39402e-16
6.31598e-16
-3.34289e-16
2.07314e-16
-8.39331e-16
9.13433e-16
-7.26069e-16
0
0
-6.36322e-16
6.44533e-16
0
0
0
-4.28231e-16
0
4.82433e-16
5.11139e-16
-5.40988e-16
-5.72039e-16
-6.04356e-16
-6.62992e-16
1.32086e-15
7.09601e-16
7.47704e-16
0
-1.67256e-15
8.57532e-16
9.17642e-16
0
-1.01464e-15
1.06658e-15
0
1.17809e-15
0
-1.30091e-15
6.83535e-16
1.43662e-15
-7.54943e-16
-5.71373e-18
1.7458e-17
1.42472e-16
-1.43978e-16
0
0
3.66375e-21
-9.62136e-17
4.71049e-16
5.58845e-17
-8.50508e-16
6.02394e-16
-1.74573e-16
9.90306e-16
-8.0799e-16
-2.28297e-16
2.47477e-16
0
-2.87897e-16
-3.09211e-16
0
-3.54212e-16
3.97364e-16
-7.85747e-16
4.28237e-16
-4.54816e-16
-4.8244e-16
2.22448e-17
-5.18566e-16
5.72047e-16
5.63087e-21
-5.72151e-21
1.37193e-15
-2.81241e-15
-6.03334e-21
-7.87467e-16
8.2898e-16
8.72331e-16
-6.55125e-21
-9.65044e-16
2.04605e-15
3.42825e-17
-2.2245e-15
-7.05043e-21
-1.25738e-15
1.28134e-15
1.36706e-15
2.17613e-17
-2.99777e-15
5.71373e-18
0
1.42415e-16
9.10691e-17
-4.40027e-16
2.47691e-16
1.64033e-16
9.62136e-17
-1.10862e-16
-4.06177e-16
3.96599e-16
-1.57835e-16
1.74573e-16
0
4.35348e-16
-4.40615e-16
2.47462e-16
0
2.87897e-16
-6.36301e-16
9.75815e-16
3.54212e-16
1.15327e-15
4.4206e-16
-8.36368e-16
1.38544e-15
4.28165e-17
2.18224e-17
5.63855e-16
-1.12096e-15
1.83731e-15
-1.25151e-15
6.98826e-16
2.60484e-17
-1.52284e-15
2.33466e-15
-8.28961e-16
-1.34366e-20
-1.37492e-20
9.65044e-16
-1.01463e-15
1.73332e-17
2.27756e-15
-2.33799e-15
0
1.30093e-15
-2.73411e-15
0
1.35075e-20
0
-1.74625e-17
1.42395e-16
9.10807e-17
-4.39994e-16
1.79385e-16
-8.20117e-17
-5.07955e-16
9.98158e-16
-6.02298e-16
0
1.57836e-16
0
7.98349e-16
6.2783e-17
-6.5296e-16
-2.47462e-16
-1.10333e-15
1.11721e-15
-3.17378e-20
1.83448e-17
3.74013e-17
-1.1149e-15
4.22517e-16
-1.26462e-15
0
5.03996e-16
-1.51158e-15
5.40979e-16
0
0
-1.27603e-15
6.73054e-16
-2.15536e-15
7.20837e-16
-2.39072e-15
7.71083e-16
-1.80448e-15
8.87063e-16
9.65072e-16
1.01463e-15
-1.06662e-15
-1.121e-15
-1.17813e-15
2.49539e-15
-1.30137e-15
2.71371e-15
2.89503e-15
4.46948e-17
0
1.74626e-17
-2.95878e-17
-4.20791e-17
-2.45219e-16
1.71337e-17
3.02296e-16
9.62291e-17
0
-6.58455e-16
-5.71733e-17
6.02545e-16
7.28661e-16
-1.53587e-15
1.46928e-15
-8.81495e-16
0
0
-5.93364e-16
2.73714e-16
1.65708e-15
-6.90001e-16
-2.53782e-20
0
4.28258e-16
-9.30768e-16
2.41285e-15
-1.0006e-15
0
-5.72099e-16
1.23311e-15
-1.91477e-15
2.69306e-15
-1.39331e-15
1.52299e-15
-7.59859e-16
0
8.72364e-16
-9.17714e-16
-2.92767e-15
-1.08092e-15
2.09941e-15
-1.12109e-15
1.17814e-15
-1.23804e-15
-1.30096e-15
-1.38804e-15
1.4373e-15
2.20085e-17
0
1.74726e-17
-7.15481e-21
0
5.50016e-17
0
8.2065e-17
9.62598e-17
0
6.5838e-16
-3.96692e-16
-6.60975e-16
6.68706e-16
7.98515e-16
-1.2593e-15
1.10977e-15
0
-8.36113e-16
1.11738e-15
-9.63527e-16
1.62059e-15
0
-1.93309e-17
1.61103e-15
-1.71344e-15
1.34396e-15
0
5.1121e-16
0
-2.39226e-20
-6.28623e-16
1.2516e-15
-6.98841e-16
1.39325e-15
-7.75142e-16
7.5975e-16
1.68728e-15
9.32214e-16
9.79532e-16
-9.33426e-16
1.01469e-15
2.16791e-15
3.51592e-17
0
0
0
0
1.45838e-15
4.46873e-17
0
-1.7473e-17
2.95951e-17
2.3527e-16
-2.50235e-16
6.83256e-17
6.73427e-21
-9.6262e-17
-4.71318e-16
4.76644e-16
-1.41723e-16
-1.57913e-16
-7.28809e-16
1.72812e-15
-1.88924e-15
6.53292e-16
-1.02348e-15
7.68801e-16
2.87977e-16
-3.09281e-16
-6.62761e-16
0
-3.78049e-16
0
8.77122e-16
-1.34411e-15
-5.04173e-16
4.89474e-16
-1.10509e-15
5.25475e-16
2.4184e-15
-2.55302e-15
6.47971e-16
0
-7.47801e-16
1.57513e-15
-1.68746e-15
8.42927e-16
1.86683e-15
-1.89873e-15
0
1.06669e-15
-1.12112e-15
0
-2.49562e-15
1.28146e-15
2.09261e-17
1.47962e-15
-4.53045e-15
5.72015e-18
0
1.42501e-16
-3.79147e-16
1.951e-16
-6.83236e-17
-8.20712e-17
0
1.10932e-16
1.26079e-16
5.95654e-16
2.16413e-16
-1.39744e-15
-2.53247e-16
-6.27844e-17
1.10986e-15
0
0
-2.87968e-16
0
6.62758e-16
-1.10051e-15
3.02493e-15
-2.39696e-15
1.28521e-15
4.16427e-17
-4.39697e-16
-4.89364e-16
-1.10498e-15
-4.66492e-17
-2.383e-17
-1.30114e-15
-5.10217e-17
2.10299e-15
0
-7.87552e-16
-8.29066e-16
0
0
1.96257e-15
-1.99669e-15
2.16798e-15
1.19217e-15
-4.71352e-15
-7.64821e-17
1.24166e-15
4.10183e-15
-2.85214e-15
-2.26252e-17
-5.72034e-18
0
0
0
0
0
0
-4.12094e-16
3.05762e-16
-1.26083e-16
-5.95834e-16
-5.85073e-17
6.68964e-16
0
0
7.17635e-16
-1.98115e-15
1.03624e-15
1.18694e-15
-1.20206e-15
-1.69381e-15
1.02593e-15
0
0
-4.4882e-16
8.89247e-16
0
-5.11243e-16
1.10512e-15
-2.28915e-15
1.78967e-15
1.30129e-15
-1.32116e-15
-7.09719e-16
0
0